
.Version 8.4.2 of ABINIT 
.(sequential version, prepared for a x86_64_linux_gnu6.3 computer) 

.Copyright (C) 1998-2017 ABINIT group . 
 ABINIT comes with ABSOLUTELY NO WARRANTY.
 It is free software, and you are welcome to redistribute it
 under certain conditions (GNU General Public License,
 see ~abinit/COPYING or http://www.gnu.org/copyleft/gpl.txt).

 ABINIT is a project of the Universite Catholique de Louvain,
 Corning Inc. and other collaborators, see ~abinit/doc/developers/contributors.txt .
 Please read ~abinit/doc/users/acknowledgments.html for suggested
 acknowledgments of the ABINIT effort.
 For more information, see http://www.abinit.org .

.Starting date : Thu  3 Aug 2017.
- ( at 21h20 )
  
- input  file    -> tbase3_5.in
- output file    -> tbase3_x.out
- root for input  files -> tbase3_xi
- root for output files -> tbase3_xo


 DATASET    1 : space group Fd -3 m (#227); Bravais cF (face-center cubic)
================================================================================
 Values of the parameters that define the memory need for DATASET  1.
     intxc =       0    ionmov =       0      iscf =       7    lmnmax =       2
     lnmax =       2     mgfft =      20  mpssoang =       3    mqgrid =    3001
     natom =       2  nloc_mem =       1    nspden =       1   nspinor =       1
    nsppol =       1      nsym =      48    n1xccc =    2501    ntypat =       1
    occopt =       1   xclevel =       1
-    mband =           5        mffmem =           1         mkmem =          10
       mpw =         295          nfft =        8000          nkpt =          10
================================================================================
P This job should need less than                       3.085 Mbytes of memory.
  Rough estimation (10% accuracy) of disk space for files :
_ WF disk file :      0.227 Mbytes ; DEN or POT disk file :      0.063 Mbytes.
================================================================================


 DATASET    2 : space group Fd -3 m (#227); Bravais cF (face-center cubic)
================================================================================
 Values of the parameters that define the memory need for DATASET  2.
     intxc =       0    ionmov =       0      iscf =      -2    lmnmax =       2
     lnmax =       2     mgfft =      20  mpssoang =       3    mqgrid =    3001
     natom =       2  nloc_mem =       1    nspden =       1   nspinor =       1
    nsppol =       1      nsym =      48    n1xccc =    2501    ntypat =       1
    occopt =       1   xclevel =       1
-    mband =           8        mffmem =           1         mkmem =         105
       mpw =         303          nfft =        8000          nkpt =         105
================================================================================
P This job should need less than                       6.221 Mbytes of memory.
  Rough estimation (10% accuracy) of disk space for files :
_ WF disk file :      3.886 Mbytes ; DEN or POT disk file :      0.063 Mbytes.
================================================================================

--------------------------------------------------------------------------------
------------- Echo of variables that govern the present computation ------------
--------------------------------------------------------------------------------
-
- outvars: echo of selected default values                                      
-   iomode0 =  0 , fftalg0 =112 , wfoptalg0 =  0
-
- outvars: echo of global parameters not present in the input file              
-  max_nthreads =    0
-
 -outvars: echo values of preprocessed input variables --------
            acell      1.0216000000E+01  1.0216000000E+01  1.0216000000E+01 Bohr
              amu      2.80855000E+01
           diemac      1.20000000E+01
             ecut      8.00000000E+00 Hartree
           enunit1          0
           enunit2          1
-          fftalg         112
           getden1          0
           getden2         -1
             iscf1          7
             iscf2         -2
           istwfk2       3    0    2    0    0    0    0    0    0    0
                         0    0    0    0    0    0    0    0    0    0
                         0    0    0    0    0    0    0    0    0    0
                         0    0    0    0    0    0    0    0    0    0
                         0    0    0    0    0    0    0    0    0    0
                       outvar_i_n : Printing only first  50 k-points.
           jdtset        1    2
              kpt1    -1.25000000E-01 -2.50000000E-01  0.00000000E+00
                      -1.25000000E-01  5.00000000E-01  0.00000000E+00
                      -2.50000000E-01 -3.75000000E-01  0.00000000E+00
                      -1.25000000E-01 -3.75000000E-01  1.25000000E-01
                      -1.25000000E-01  2.50000000E-01  0.00000000E+00
                      -2.50000000E-01  3.75000000E-01  0.00000000E+00
                      -3.75000000E-01  5.00000000E-01  0.00000000E+00
                      -2.50000000E-01  5.00000000E-01  1.25000000E-01
                      -1.25000000E-01  0.00000000E+00  0.00000000E+00
                      -3.75000000E-01  0.00000000E+00  0.00000000E+00
              kpt2     5.00000000E-01  0.00000000E+00  0.00000000E+00
                       2.50000000E-01  0.00000000E+00  0.00000000E+00
                       0.00000000E+00  0.00000000E+00  0.00000000E+00
                       0.00000000E+00  5.00000000E-03  5.00000000E-03
                       0.00000000E+00  1.00000000E-02  1.00000000E-02
                       0.00000000E+00  1.50000000E-02  1.50000000E-02
                       0.00000000E+00  2.00000000E-02  2.00000000E-02
                       0.00000000E+00  2.50000000E-02  2.50000000E-02
                       0.00000000E+00  3.00000000E-02  3.00000000E-02
                       0.00000000E+00  3.50000000E-02  3.50000000E-02
                       0.00000000E+00  4.00000000E-02  4.00000000E-02
                       0.00000000E+00  4.50000000E-02  4.50000000E-02
                       0.00000000E+00  5.00000000E-02  5.00000000E-02
                       0.00000000E+00  5.50000000E-02  5.50000000E-02
                       0.00000000E+00  6.00000000E-02  6.00000000E-02
                       0.00000000E+00  6.50000000E-02  6.50000000E-02
                       0.00000000E+00  7.00000000E-02  7.00000000E-02
                       0.00000000E+00  7.50000000E-02  7.50000000E-02
                       0.00000000E+00  8.00000000E-02  8.00000000E-02
                       0.00000000E+00  8.50000000E-02  8.50000000E-02
                       0.00000000E+00  9.00000000E-02  9.00000000E-02
                       0.00000000E+00  9.50000000E-02  9.50000000E-02
                       0.00000000E+00  1.00000000E-01  1.00000000E-01
                       0.00000000E+00  1.05000000E-01  1.05000000E-01
                       0.00000000E+00  1.10000000E-01  1.10000000E-01
                       0.00000000E+00  1.15000000E-01  1.15000000E-01
                       0.00000000E+00  1.20000000E-01  1.20000000E-01
                       0.00000000E+00  1.25000000E-01  1.25000000E-01
                       0.00000000E+00  1.30000000E-01  1.30000000E-01
                       0.00000000E+00  1.35000000E-01  1.35000000E-01
                       0.00000000E+00  1.40000000E-01  1.40000000E-01
                       0.00000000E+00  1.45000000E-01  1.45000000E-01
                       0.00000000E+00  1.50000000E-01  1.50000000E-01
                       0.00000000E+00  1.55000000E-01  1.55000000E-01
                       0.00000000E+00  1.60000000E-01  1.60000000E-01
                       0.00000000E+00  1.65000000E-01  1.65000000E-01
                       0.00000000E+00  1.70000000E-01  1.70000000E-01
                       0.00000000E+00  1.75000000E-01  1.75000000E-01
                       0.00000000E+00  1.80000000E-01  1.80000000E-01
                       0.00000000E+00  1.85000000E-01  1.85000000E-01
                       0.00000000E+00  1.90000000E-01  1.90000000E-01
                       0.00000000E+00  1.95000000E-01  1.95000000E-01
                       0.00000000E+00  2.00000000E-01  2.00000000E-01
                       0.00000000E+00  2.05000000E-01  2.05000000E-01
                       0.00000000E+00  2.10000000E-01  2.10000000E-01
                       0.00000000E+00  2.15000000E-01  2.15000000E-01
                       0.00000000E+00  2.20000000E-01  2.20000000E-01
                       0.00000000E+00  2.25000000E-01  2.25000000E-01
                       0.00000000E+00  2.30000000E-01  2.30000000E-01
                       0.00000000E+00  2.35000000E-01  2.35000000E-01
                       outvar_i_n : Printing only first  50 k-points.
           kptopt1          1
           kptopt2         -3
         kptrlatt        4   -4    4     -4    4    4     -4   -4    4
          kptrlen1     4.08640000E+01
          kptrlen2     3.00000000E+01
P           mkmem1         10
P           mkmem2        105
            natom           2
            nband1          5
            nband2          8
           nbdbuf1          0
           nbdbuf2          2
           ndtset           2
            ngfft          20      20      20
             nkpt1         10
             nkpt2        105
            nstep          10
             nsym          48
           ntypat           1
              occ      2.000000  2.000000  2.000000  2.000000  0.000000
            rprim      0.0000000000E+00  5.0000000000E-01  5.0000000000E-01
                       5.0000000000E-01  0.0000000000E+00  5.0000000000E-01
                       5.0000000000E-01  5.0000000000E-01  0.0000000000E+00
           shiftk      5.00000000E-01  5.00000000E-01  5.00000000E-01
          spgroup         227
           symrel      1  0  0   0  1  0   0  0  1      -1  0  0   0 -1  0   0  0 -1
                       0 -1  1   0 -1  0   1 -1  0       0  1 -1   0  1  0  -1  1  0
                      -1  0  0  -1  0  1  -1  1  0       1  0  0   1  0 -1   1 -1  0
                       0  1 -1   1  0 -1   0  0 -1       0 -1  1  -1  0  1   0  0  1
                      -1  0  0  -1  1  0  -1  0  1       1  0  0   1 -1  0   1  0 -1
                       0 -1  1   1 -1  0   0 -1  0       0  1 -1  -1  1  0   0  1  0
                       1  0  0   0  0  1   0  1  0      -1  0  0   0  0 -1   0 -1  0
                       0  1 -1   0  0 -1   1  0 -1       0 -1  1   0  0  1  -1  0  1
                      -1  0  1  -1  1  0  -1  0  0       1  0 -1   1 -1  0   1  0  0
                       0 -1  0   1 -1  0   0 -1  1       0  1  0  -1  1  0   0  1 -1
                       1  0 -1   0  0 -1   0  1 -1      -1  0  1   0  0  1   0 -1  1
                       0  1  0   0  0  1   1  0  0       0 -1  0   0  0 -1  -1  0  0
                       1  0 -1   0  1 -1   0  0 -1      -1  0  1   0 -1  1   0  0  1
                       0 -1  0   0 -1  1   1 -1  0       0  1  0   0  1 -1  -1  1  0
                      -1  0  1  -1  0  0  -1  1  0       1  0 -1   1  0  0   1 -1  0
                       0  1  0   1  0  0   0  0  1       0 -1  0  -1  0  0   0  0 -1
                       0  0 -1   0  1 -1   1  0 -1       0  0  1   0 -1  1  -1  0  1
                       1 -1  0   0 -1  1   0 -1  0      -1  1  0   0  1 -1   0  1  0
                       0  0  1   1  0  0   0  1  0       0  0 -1  -1  0  0   0 -1  0
                      -1  1  0  -1  0  0  -1  0  1       1 -1  0   1  0  0   1  0 -1
                       0  0  1   0  1  0   1  0  0       0  0 -1   0 -1  0  -1  0  0
                       1 -1  0   0 -1  0   0 -1  1      -1  1  0   0  1  0   0  1 -1
                       0  0 -1   1  0 -1   0  1 -1       0  0  1  -1  0  1   0 -1  1
                      -1  1  0  -1  0  1  -1  0  0       1 -1  0   1  0 -1   1  0  0
            tnons      0.0000000  0.0000000  0.0000000     0.2500000  0.2500000  0.2500000
                       0.0000000  0.0000000  0.0000000     0.2500000  0.2500000  0.2500000
                       0.0000000  0.0000000  0.0000000     0.2500000  0.2500000  0.2500000
                       0.0000000  0.0000000  0.0000000     0.2500000  0.2500000  0.2500000
                       0.0000000  0.0000000  0.0000000     0.2500000  0.2500000  0.2500000
                       0.0000000  0.0000000  0.0000000     0.2500000  0.2500000  0.2500000
                       0.0000000  0.0000000  0.0000000     0.2500000  0.2500000  0.2500000
                       0.0000000  0.0000000  0.0000000     0.2500000  0.2500000  0.2500000
                       0.0000000  0.0000000  0.0000000     0.2500000  0.2500000  0.2500000
                       0.0000000  0.0000000  0.0000000     0.2500000  0.2500000  0.2500000
                       0.0000000  0.0000000  0.0000000     0.2500000  0.2500000  0.2500000
                       0.0000000  0.0000000  0.0000000     0.2500000  0.2500000  0.2500000
                       0.0000000  0.0000000  0.0000000     0.2500000  0.2500000  0.2500000
                       0.0000000  0.0000000  0.0000000     0.2500000  0.2500000  0.2500000
                       0.0000000  0.0000000  0.0000000     0.2500000  0.2500000  0.2500000
                       0.0000000  0.0000000  0.0000000     0.2500000  0.2500000  0.2500000
                       0.0000000  0.0000000  0.0000000     0.2500000  0.2500000  0.2500000
                       0.0000000  0.0000000  0.0000000     0.2500000  0.2500000  0.2500000
                       0.0000000  0.0000000  0.0000000     0.2500000  0.2500000  0.2500000
                       0.0000000  0.0000000  0.0000000     0.2500000  0.2500000  0.2500000
                       0.0000000  0.0000000  0.0000000     0.2500000  0.2500000  0.2500000
                       0.0000000  0.0000000  0.0000000     0.2500000  0.2500000  0.2500000
                       0.0000000  0.0000000  0.0000000     0.2500000  0.2500000  0.2500000
                       0.0000000  0.0000000  0.0000000     0.2500000  0.2500000  0.2500000
           toldfe1     1.00000000E-06 Hartree
           toldfe2     0.00000000E+00 Hartree
           tolwfr1     0.00000000E+00
           tolwfr2     1.00000000E-12
            typat      1  1
              wtk1       0.09375    0.09375    0.09375    0.18750    0.09375    0.09375
                         0.09375    0.18750    0.03125    0.03125
              wtk2       1.00000    1.00000    1.00000    1.00000    1.00000    1.00000
                         1.00000    1.00000    1.00000    1.00000    1.00000    1.00000
                         1.00000    1.00000    1.00000    1.00000    1.00000    1.00000
                         1.00000    1.00000    1.00000    1.00000    1.00000    1.00000
                         1.00000    1.00000    1.00000    1.00000    1.00000    1.00000
                         1.00000    1.00000    1.00000    1.00000    1.00000    1.00000
                         1.00000    1.00000    1.00000    1.00000    1.00000    1.00000
                         1.00000    1.00000    1.00000    1.00000    1.00000    1.00000
                         1.00000    1.00000
                       outvars : Printing only first  50 k-points.
           xangst      0.0000000000E+00  0.0000000000E+00  0.0000000000E+00
                       1.3515185907E+00  1.3515185907E+00  1.3515185907E+00
            xcart      0.0000000000E+00  0.0000000000E+00  0.0000000000E+00
                       2.5540000000E+00  2.5540000000E+00  2.5540000000E+00
             xred      0.0000000000E+00  0.0000000000E+00  0.0000000000E+00
                       2.5000000000E-01  2.5000000000E-01  2.5000000000E-01
            znucl       14.00000

================================================================================

 chkinp: Checking input parameters for consistency, jdtset=   1.

 chkinp: Checking input parameters for consistency, jdtset=   2.

================================================================================
== DATASET  1 ==================================================================
-   nproc =    1

 Exchange-correlation functional for the present dataset will be:
  LDA: new Teter (4/93) with spin-polarized option - ixc=1
 Citation for XC functional:
  S. Goedecker, M. Teter, J. Huetter, PRB 54, 1703 (1996)

 Real(R)+Recip(G) space primitive vectors, cartesian coordinates (Bohr,Bohr^-1):
 R(1)=  0.0000000  5.1080000  5.1080000  G(1)= -0.0978857  0.0978857  0.0978857
 R(2)=  5.1080000  0.0000000  5.1080000  G(2)=  0.0978857 -0.0978857  0.0978857
 R(3)=  5.1080000  5.1080000  0.0000000  G(3)=  0.0978857  0.0978857 -0.0978857
 Unit cell volume ucvol=  2.6655244E+02 bohr^3
 Angles (23,13,12)=  6.00000000E+01  6.00000000E+01  6.00000000E+01 degrees

 getcut: wavevector=  0.0000  0.0000  0.0000  ngfft=  20  20  20
         ecut(hartree)=      8.000   => boxcut(ratio)=   2.17447

--- Pseudopotential description ------------------------------------------------
- pspini: atom type   1  psp file is ./Psps/14si.pspnc
- pspatm: opening atomic psp file    ./Psps/14si.pspnc
-  Troullier-Martins psp for element  Si        Thu Oct 27 17:31:21 EDT 1994
- 14.00000   4.00000    940714                znucl, zion, pspdat
    1    1    2    2      2001   0.00000      pspcod,pspxc,lmax,lloc,mmax,r2well
    0   5.907  14.692    1   2.0872718        l,e99.0,e99.9,nproj,rcpsp
   0.00000000   0.00000000   0.00000000   0.00000000     rms, ekb1, ekb2, epsatm
    1   2.617   4.181    1   2.0872718        l,e99.0,e99.9,nproj,rcpsp
   0.00000000   0.00000000   0.00000000   0.00000000     rms, ekb1, ekb2, epsatm
    2   0.000   0.000    0   2.0872718        l,e99.0,e99.9,nproj,rcpsp
   0.00000000   0.00000000   0.00000000   0.00000000     rms, ekb1, ekb2, epsatm
    1.80626423934776    0.22824404341771    1.17378968127746   rchrg,fchrg,qchrg
 pspatm: epsatm=    1.43386982
         --- l  ekb(1:nproj) -->
             0    3.287949
             1    1.849886
 pspatm: atomic psp has been read  and splines computed

   2.29419171E+01                                ecore*ucvol(ha*bohr**3)
--------------------------------------------------------------------------------

_setup2: Arith. and geom. avg. npw (full set) are     289.031     289.009

================================================================================

     iter   Etot(hartree)      deltaE(h)  residm     vres2
 ETOT  1  -8.8670397211181    -8.867E+00 4.789E-03 5.724E+00
 ETOT  2  -8.8724810028755    -5.441E-03 2.747E-04 1.581E-01
 ETOT  3  -8.8725585064781    -7.750E-05 1.239E-05 2.938E-03
 ETOT  4  -8.8725593989858    -8.925E-07 8.043E-07 1.103E-05
 ETOT  5  -8.8725594041045    -5.119E-09 2.902E-07 2.947E-08

 At SCF step    5, etot is converged : 
  for the second time, diff in etot=  5.119E-09 < toldfe=  1.000E-06

 Cartesian components of stress tensor (hartree/bohr^3)
  sigma(1 1)=  2.93016435E-05  sigma(3 2)=  0.00000000E+00
  sigma(2 2)=  2.93016435E-05  sigma(3 1)=  0.00000000E+00
  sigma(3 3)=  2.93016435E-05  sigma(2 1)=  0.00000000E+00

 Integrated electronic density in atomic spheres:
 ------------------------------------------------
 Atom  Sphere_radius  Integrated_density
    1        2.00000          1.71561664
    2        2.00000          1.71561664
================================================================================

 ----iterations are completed or convergence reached----

 Mean square residual over all n,k,spin=   5.9507E-09; max=  2.9021E-07
 reduced coordinates (array xred) for    2 atoms
       0.000000000000      0.000000000000      0.000000000000
       0.250000000000      0.250000000000      0.250000000000
 rms dE/dt=  0.0000E+00; max dE/dt=  0.0000E+00; dE/dt below (all hartree)
    1       0.000000000000      0.000000000000      0.000000000000
    2       0.000000000000      0.000000000000      0.000000000000

 cartesian coordinates (angstrom) at end:
    1      0.00000000000000     0.00000000000000     0.00000000000000
    2      1.35151859073886     1.35151859073886     1.35151859073886

 cartesian forces (hartree/bohr) at end:
    1     -0.00000000000000    -0.00000000000000    -0.00000000000000
    2     -0.00000000000000    -0.00000000000000    -0.00000000000000
 frms,max,avg= 0.0000000E+00 0.0000000E+00   0.000E+00  0.000E+00  0.000E+00 h/b

 cartesian forces (eV/Angstrom) at end:
    1     -0.00000000000000    -0.00000000000000    -0.00000000000000
    2     -0.00000000000000    -0.00000000000000    -0.00000000000000
 frms,max,avg= 0.0000000E+00 0.0000000E+00   0.000E+00  0.000E+00  0.000E+00 e/A
 length scales= 10.216000000000 10.216000000000 10.216000000000 bohr
              =  5.406074362955  5.406074362955  5.406074362955 angstroms
 prteigrs : about to open file tbase3_xo_DS1_EIG
 Fermi (or HOMO) energy (hartree) =   0.20650   Average Vxc (hartree)=  -0.35456
 Eigenvalues (hartree) for nkpt=  10  k points:
 kpt#   1, nband=  5, wtk=  0.09375, kpt= -0.1250 -0.2500  0.0000 (reduced coord)
  -0.19905    0.09756    0.16778    0.17065    0.29404
 prteigrs : prtvol=0 or 1, do not print more k-points.


--------------------------------------------------------------------------------
 Components of total free energy (in Hartree) :

    Kinetic energy  =  3.02586404019089E+00
    Hartree energy  =  5.37872698000340E-01
    XC energy       = -3.53883494296723E+00
    Ewald energy    = -8.43664533146725E+00
    PspCore energy  =  8.60690571494473E-02
    Loc. psp. energy= -2.42996662280501E+00
    NL   psp  energy=  1.88308169779436E+00
    >>>>>>>>> Etotal= -8.87255940410445E+00

 Other information on the energy :
    Total energy(eV)= -2.41434619765739E+02 ; Band energy (Ha)=   2.3182677458E-01
--------------------------------------------------------------------------------

 Cartesian components of stress tensor (hartree/bohr^3)
  sigma(1 1)=  2.93016435E-05  sigma(3 2)=  0.00000000E+00
  sigma(2 2)=  2.93016435E-05  sigma(3 1)=  0.00000000E+00
  sigma(3 3)=  2.93016435E-05  sigma(2 1)=  0.00000000E+00

-Cartesian components of stress tensor (GPa)         [Pressure= -8.6208E-01 GPa]
- sigma(1 1)=  8.62083970E-01  sigma(3 2)=  0.00000000E+00
- sigma(2 2)=  8.62083970E-01  sigma(3 1)=  0.00000000E+00
- sigma(3 3)=  8.62083970E-01  sigma(2 1)=  0.00000000E+00

================================================================================
== DATASET  2 ==================================================================
-   nproc =    1

 mkfilename : getden/=0, take file _DEN from output of DATASET   1.

 Exchange-correlation functional for the present dataset will be:
  LDA: new Teter (4/93) with spin-polarized option - ixc=1
 Citation for XC functional:
  S. Goedecker, M. Teter, J. Huetter, PRB 54, 1703 (1996)

 Real(R)+Recip(G) space primitive vectors, cartesian coordinates (Bohr,Bohr^-1):
 R(1)=  0.0000000  5.1080000  5.1080000  G(1)= -0.0978857  0.0978857  0.0978857
 R(2)=  5.1080000  0.0000000  5.1080000  G(2)=  0.0978857 -0.0978857  0.0978857
 R(3)=  5.1080000  5.1080000  0.0000000  G(3)=  0.0978857  0.0978857 -0.0978857
 Unit cell volume ucvol=  2.6655244E+02 bohr^3
 Angles (23,13,12)=  6.00000000E+01  6.00000000E+01  6.00000000E+01 degrees

 getcut: wavevector=  0.0000  0.0000  0.0000  ngfft=  20  20  20
         ecut(hartree)=      8.000   => boxcut(ratio)=   2.17447
--------------------------------------------------------------------------------


================================================================================
 prteigrs : about to open file tbase3_xo_DS2_EIG
 Non-SCF case, kpt    1 (  0.50000  0.00000  0.00000), residuals and eigenvalues=
  2.20E-13  4.63E-13  4.19E-13  1.36E-13  1.83E-13  4.57E-13  4.58E-13  1.92E-12
 -1.3921E-01 -4.2582E-02  1.7260E-01  1.7260E-01  2.7150E-01  3.3952E-01
  3.3952E-01  4.9454E-01
  prteigrs : nnsclo,ikpt=   10    1 max resid (incl. the buffer)=  1.92496E-12
 Non-SCF case, kpt    2 (  0.25000  0.00000  0.00000), residuals and eigenvalues=
  8.36E-13  1.65E-13  5.70E-13  5.38E-13  5.62E-13  1.31E-13  3.36E-13  5.44E-06
 -1.9688E-01  7.1048E-02  1.8885E-01  1.8885E-01  2.8937E-01  3.4558E-01
  3.4558E-01  4.6709E-01
  prteigrs : nnsclo,ikpt=   10    2 max resid (incl. the buffer)=  5.43543E-06
 Non-SCF case, kpt    3 (  0.00000  0.00000  0.00000), residuals and eigenvalues=
  3.74E-13  3.52E-13  5.14E-13  3.53E-13  3.34E-13  1.78E-13  7.89E-13  3.15E-13
 -2.2675E-01  2.1749E-01  2.1749E-01  2.1749E-01  3.1047E-01  3.1047E-01
  3.1047E-01  3.3727E-01
 Non-SCF case, kpt    4 (  0.00000  0.00500  0.00500), residuals and eigenvalues=
  2.32E-13  2.40E-13  1.76E-13  5.55E-13  6.80E-13  5.66E-13  2.34E-13  9.86E-13
 -2.2673E-01  2.1737E-01  2.1741E-01  2.1741E-01  3.1043E-01  3.1057E-01
  3.1057E-01  3.3738E-01
 Non-SCF case, kpt    5 (  0.00000  0.01000  0.01000), residuals and eigenvalues=
  2.45E-13  2.89E-13  1.32E-13  5.59E-13  7.20E-13  5.20E-13  2.83E-13  5.44E-14
 -2.2668E-01  2.1703E-01  2.1719E-01  2.1719E-01  3.1030E-01  3.1084E-01
  3.1084E-01  3.3771E-01
 Non-SCF case, kpt    6 (  0.00000  0.01500  0.01500), residuals and eigenvalues=
  2.54E-13  3.37E-13  1.29E-13  5.65E-13  7.74E-13  4.65E-13  3.18E-13  8.15E-14
 -2.2660E-01  2.1647E-01  2.1683E-01  2.1683E-01  3.1009E-01  3.1131E-01
  3.1131E-01  3.3826E-01
 Non-SCF case, kpt    7 (  0.00000  0.02000  0.02000), residuals and eigenvalues=
  2.59E-13  3.92E-13  1.24E-13  5.69E-13  8.40E-13  4.05E-13  3.63E-13  1.24E-13
 -2.2648E-01  2.1569E-01  2.1633E-01  2.1633E-01  3.0979E-01  3.1195E-01
  3.1195E-01  3.3901E-01
 Non-SCF case, kpt    8 (  0.00000  0.02500  0.02500), residuals and eigenvalues=
  2.65E-13  4.03E-13  1.18E-13  5.69E-13  9.10E-13  3.50E-13  4.24E-13  1.87E-13
 -2.2634E-01  2.1471E-01  2.1569E-01  2.1569E-01  3.0941E-01  3.1276E-01
  3.1276E-01  3.3997E-01
 Non-SCF case, kpt    9 (  0.00000  0.03000  0.03000), residuals and eigenvalues=
  2.64E-13  3.86E-13  1.12E-13  5.56E-13  9.75E-13  3.05E-13  5.12E-13  2.80E-13
 -2.2616E-01  2.1352E-01  2.1493E-01  2.1493E-01  3.0895E-01  3.1375E-01
  3.1375E-01  3.4111E-01
 Non-SCF case, kpt   10 (  0.00000  0.03500  0.03500), residuals and eigenvalues=
  2.62E-13  9.11E-13  1.09E-13  7.28E-13  6.69E-14  2.74E-13  6.37E-13  4.13E-13
 -2.2594E-01  2.1215E-01  2.1405E-01  2.1405E-01  3.0841E-01  3.1488E-01
  3.1488E-01  3.4243E-01
 Non-SCF case, kpt   11 (  0.00000  0.04000  0.04000), residuals and eigenvalues=
  6.56E-13  9.73E-13  2.87E-13  4.97E-13  2.72E-13  3.04E-13  3.26E-13  2.07E-13
 -2.2570E-01  2.1061E-01  2.1303E-01  2.1303E-01  3.0780E-01  3.1615E-01
  3.1615E-01  3.4390E-01
 Non-SCF case, kpt   12 (  0.00000  0.04500  0.04500), residuals and eigenvalues=
  6.27E-13  9.14E-13  2.85E-13  4.83E-13  1.96E-13  4.34E-13  9.73E-13  2.64E-13
 -2.2543E-01  2.0890E-01  2.1194E-01  2.1194E-01  3.0711E-01  3.1758E-01
  3.1758E-01  3.4552E-01
 Non-SCF case, kpt   13 (  0.00000  0.05000  0.05000), residuals and eigenvalues=
  5.98E-13  8.59E-13  2.82E-13  4.90E-13  9.28E-13  5.82E-13  4.42E-13  3.54E-13
 -2.2511E-01  2.0705E-01  2.1076E-01  2.1076E-01  3.0636E-01  3.1914E-01
  3.1914E-01  3.4726E-01
 Non-SCF case, kpt   14 (  0.00000  0.05500  0.05500), residuals and eigenvalues=
  5.68E-13  8.05E-13  2.78E-13  5.19E-13  6.99E-13  6.88E-13  8.39E-13  5.12E-13
 -2.2477E-01  2.0506E-01  2.0949E-01  2.0949E-01  3.0554E-01  3.2082E-01
  3.2082E-01  3.4912E-01
 Non-SCF case, kpt   15 (  0.00000  0.06000  0.06000), residuals and eigenvalues=
  7.66E-13  4.88E-13  1.95E-13  5.06E-13  3.00E-13  6.63E-13  6.09E-13  3.50E-12
 -2.2440E-01  2.0291E-01  2.0813E-01  2.0813E-01  3.0455E-01  3.2258E-01
  3.2258E-01  3.5106E-01
  prteigrs : nnsclo,ikpt=   10   15 max resid (incl. the buffer)=  3.49946E-12
 Non-SCF case, kpt   16 (  0.00000  0.06500  0.06500), residuals and eigenvalues=
  7.66E-13  4.38E-13  1.91E-13  5.04E-13  3.40E-13  8.20E-13  8.74E-13  4.40E-12
 -2.2399E-01  2.0068E-01  2.0672E-01  2.0672E-01  3.0360E-01  3.2449E-01
  3.2449E-01  3.5309E-01
  prteigrs : nnsclo,ikpt=   10   16 max resid (incl. the buffer)=  4.40465E-12
 Non-SCF case, kpt   17 (  0.00000  0.07000  0.07000), residuals and eigenvalues=
  7.59E-13  4.22E-13  1.89E-13  4.97E-13  4.02E-13  1.62E-13  9.72E-14  5.59E-12
 -2.2355E-01  1.9834E-01  2.0526E-01  2.0526E-01  3.0260E-01  3.2649E-01
  3.2649E-01  3.5517E-01
  prteigrs : nnsclo,ikpt=   10   17 max resid (incl. the buffer)=  5.58755E-12
 Non-SCF case, kpt   18 (  0.00000  0.07500  0.07500), residuals and eigenvalues=
  4.24E-13  4.94E-13  1.83E-13  3.29E-13  1.71E-13  9.12E-13  4.13E-13  6.03E-12
 -2.2308E-01  1.9589E-01  2.0374E-01  2.0374E-01  3.0154E-01  3.2849E-01
  3.2849E-01  3.5729E-01
  prteigrs : nnsclo,ikpt=   10   18 max resid (incl. the buffer)=  6.02681E-12
 Non-SCF case, kpt   19 (  0.00000  0.08000  0.08000), residuals and eigenvalues=
  4.86E-13  5.31E-13  1.64E-13  2.93E-13  1.82E-13  2.17E-13  6.77E-13  6.91E-12
 -2.2258E-01  1.9338E-01  2.0217E-01  2.0217E-01  3.0045E-01  3.3067E-01
  3.3067E-01  3.5944E-01
  prteigrs : nnsclo,ikpt=   10   19 max resid (incl. the buffer)=  6.91279E-12
 Non-SCF case, kpt   20 (  0.00000  0.08500  0.08500), residuals and eigenvalues=
  5.27E-13  5.76E-13  9.97E-13  2.71E-13  1.86E-13  3.38E-13  1.09E-12  8.42E-12
 -2.2204E-01  1.9079E-01  2.0057E-01  2.0057E-01  2.9930E-01  3.3292E-01
  3.3292E-01  3.6158E-01
  prteigrs : nnsclo,ikpt=   10   20 max resid (incl. the buffer)=  8.41909E-12
 Non-SCF case, kpt   21 (  0.00000  0.09000  0.09000), residuals and eigenvalues=
  5.47E-13  6.29E-13  8.89E-13  2.60E-13  1.85E-13  5.26E-13  1.72E-12  1.05E-11
 -2.2147E-01  1.8812E-01  1.9893E-01  1.9893E-01  2.9812E-01  3.3525E-01
  3.3525E-01  3.6369E-01
  prteigrs : nnsclo,ikpt=   10   21 max resid (incl. the buffer)=  1.05058E-11
 Non-SCF case, kpt   22 (  0.00000  0.09500  0.09500), residuals and eigenvalues=
  6.33E-13  3.80E-13  1.76E-13  5.00E-13  6.49E-13  6.54E-13  5.33E-12  2.10E-11
 -2.2085E-01  1.8540E-01  1.9730E-01  1.9730E-01  2.9692E-01  3.3765E-01
  3.3765E-01  3.6576E-01
  prteigrs : nnsclo,ikpt=   10   22 max resid (incl. the buffer)=  2.10477E-11
 Non-SCF case, kpt   23 (  0.00000  0.10000  0.10000), residuals and eigenvalues=
  5.82E-13  3.24E-13  3.46E-13  2.85E-13  5.07E-13  7.14E-13  6.35E-13  2.00E-13
 -2.2021E-01  1.8262E-01  1.9561E-01  1.9561E-01  2.9566E-01  3.4010E-01
  3.4010E-01  3.6776E-01
 Non-SCF case, kpt   24 (  0.00000  0.10500  0.10500), residuals and eigenvalues=
  5.44E-13  2.70E-13  3.06E-13  2.86E-13  3.80E-13  8.14E-13  2.79E-13  5.98E-13
 -2.1955E-01  1.7978E-01  1.9390E-01  1.9390E-01  2.9438E-01  3.4261E-01
  3.4261E-01  3.6965E-01
 Non-SCF case, kpt   25 (  0.00000  0.11000  0.11000), residuals and eigenvalues=
  5.26E-13  2.26E-13  2.72E-13  2.99E-13  4.41E-13  1.50E-13  4.80E-13  2.10E-12
 -2.1885E-01  1.7690E-01  1.9217E-01  1.9217E-01  2.9307E-01  3.4517E-01
  3.4517E-01  3.7140E-01
  prteigrs : nnsclo,ikpt=   10   25 max resid (incl. the buffer)=  2.09874E-12
 Non-SCF case, kpt   26 (  0.00000  0.11500  0.11500), residuals and eigenvalues=
  5.19E-13  1.97E-13  2.58E-13  3.31E-13  6.71E-13  2.17E-13  7.83E-13  3.05E-12
 -2.1812E-01  1.7398E-01  1.9044E-01  1.9044E-01  2.9174E-01  3.4779E-01
  3.4779E-01  3.7299E-01
  prteigrs : nnsclo,ikpt=   10   26 max resid (incl. the buffer)=  3.04604E-12
 Non-SCF case, kpt   27 (  0.00000  0.12000  0.12000), residuals and eigenvalues=
  5.12E-13  1.81E-13  2.58E-13  3.69E-13  8.44E-13  3.85E-13  4.74E-13  3.35E-12
 -2.1735E-01  1.7102E-01  1.8869E-01  1.8869E-01  2.9039E-01  3.5045E-01
  3.5045E-01  3.7438E-01
  prteigrs : nnsclo,ikpt=   10   27 max resid (incl. the buffer)=  3.35210E-12
 Non-SCF case, kpt   28 (  0.00000  0.12500  0.12500), residuals and eigenvalues=
  5.01E-13  1.72E-13  2.62E-13  3.81E-13  9.13E-13  8.43E-13  6.47E-13  4.73E-12
 -2.1656E-01  1.6802E-01  1.8694E-01  1.8694E-01  2.8902E-01  3.5315E-01
  3.5315E-01  3.7552E-01
  prteigrs : nnsclo,ikpt=   10   28 max resid (incl. the buffer)=  4.73161E-12
 Non-SCF case, kpt   29 (  0.00000  0.13000  0.13000), residuals and eigenvalues=
  4.96E-13  1.63E-13  2.53E-13  3.58E-13  8.58E-13  5.09E-13  7.34E-13  8.41E-12
 -2.1573E-01  1.6499E-01  1.8519E-01  1.8519E-01  2.8764E-01  3.5589E-01
  3.5589E-01  3.7639E-01
  prteigrs : nnsclo,ikpt=   10   29 max resid (incl. the buffer)=  8.40739E-12
 Non-SCF case, kpt   30 (  0.00000  0.13500  0.13500), residuals and eigenvalues=
  5.05E-13  1.50E-13  2.26E-13  3.11E-13  6.72E-13  6.80E-13  8.07E-13  9.51E-12
 -2.1487E-01  1.6193E-01  1.8343E-01  1.8343E-01  2.8625E-01  3.5868E-01
  3.5868E-01  3.7695E-01
  prteigrs : nnsclo,ikpt=   10   30 max resid (incl. the buffer)=  9.50821E-12
 Non-SCF case, kpt   31 (  0.00000  0.14000  0.14000), residuals and eigenvalues=
  5.22E-13  1.29E-13  1.88E-13  2.56E-13  4.28E-13  6.05E-13  2.13E-12  5.83E-12
 -2.1398E-01  1.5885E-01  1.8168E-01  1.8168E-01  2.8484E-01  3.6149E-01
  3.6149E-01  3.7719E-01
  prteigrs : nnsclo,ikpt=   10   31 max resid (incl. the buffer)=  5.83393E-12
 Non-SCF case, kpt   32 (  0.00000  0.14500  0.14500), residuals and eigenvalues=
  5.34E-13  8.63E-13  1.52E-13  2.02E-13  2.32E-13  6.97E-13  1.01E-11  3.91E-12
 -2.1305E-01  1.5574E-01  1.7993E-01  1.7993E-01  2.8344E-01  3.6434E-01
  3.6434E-01  3.7708E-01
  prteigrs : nnsclo,ikpt=   10   32 max resid (incl. the buffer)=  1.00575E-11
 Non-SCF case, kpt   33 (  0.00000  0.15000  0.15000), residuals and eigenvalues=
  5.29E-13  6.41E-13  9.36E-13  1.62E-13  7.23E-13  2.87E-13  1.79E-11  2.14E-12
 -2.1210E-01  1.5261E-01  1.7819E-01  1.7819E-01  2.8202E-01  3.6722E-01
  3.6722E-01  3.7663E-01
  prteigrs : nnsclo,ikpt=   10   33 max resid (incl. the buffer)=  1.78680E-11
 Non-SCF case, kpt   34 (  0.00000  0.15500  0.15500), residuals and eigenvalues=
  5.08E-13  4.56E-13  9.80E-13  1.21E-13  5.60E-13  5.75E-13  2.69E-11  5.40E-13
 -2.1111E-01  1.4946E-01  1.7645E-01  1.7645E-01  2.8061E-01  3.7013E-01
  3.7013E-01  3.7583E-01
  prteigrs : nnsclo,ikpt=   10   34 max resid (incl. the buffer)=  2.68517E-11
 Non-SCF case, kpt   35 (  0.00000  0.16000  0.16000), residuals and eigenvalues=
  4.76E-13  2.99E-13  1.68E-13  1.06E-13  4.94E-13  5.89E-13  3.06E-11  1.80E-12
 -2.1009E-01  1.4630E-01  1.7473E-01  1.7473E-01  2.7919E-01  3.7307E-01
  3.7307E-01  3.7473E-01
  prteigrs : nnsclo,ikpt=   10   35 max resid (incl. the buffer)=  3.05802E-11
 Non-SCF case, kpt   36 (  0.00000  0.16500  0.16500), residuals and eigenvalues=
  4.36E-13  2.04E-13  1.93E-13  9.84E-13  4.69E-13  3.17E-13  5.63E-13  3.61E-11
 -2.0904E-01  1.4311E-01  1.7301E-01  1.7301E-01  2.7778E-01  3.7332E-01
  3.7603E-01  3.7603E-01
  prteigrs : nnsclo,ikpt=   10   36 max resid (incl. the buffer)=  3.60915E-11
 Non-SCF case, kpt   37 (  0.00000  0.17000  0.17000), residuals and eigenvalues=
  3.97E-13  1.55E-13  2.17E-13  9.76E-14  4.74E-13  4.66E-13  1.30E-12  4.76E-11
 -2.0796E-01  1.3991E-01  1.7131E-01  1.7131E-01  2.7637E-01  3.7166E-01
  3.7902E-01  3.7902E-01
  prteigrs : nnsclo,ikpt=   10   37 max resid (incl. the buffer)=  4.76120E-11
 Non-SCF case, kpt   38 (  0.00000  0.17500  0.17500), residuals and eigenvalues=
  3.58E-13  1.32E-13  2.33E-13  9.75E-14  4.96E-13  3.02E-13  1.72E-12  3.60E-11
 -2.0684E-01  1.3670E-01  1.6962E-01  1.6962E-01  2.7496E-01  3.6976E-01
  3.8203E-01  3.8203E-01
  prteigrs : nnsclo,ikpt=   10   38 max resid (incl. the buffer)=  3.59829E-11
 Non-SCF case, kpt   39 (  0.00000  0.18000  0.18000), residuals and eigenvalues=
  3.22E-13  1.19E-13  2.50E-13  9.91E-14  5.31E-13  2.31E-13  1.44E-12  1.63E-11
 -2.0569E-01  1.3348E-01  1.6794E-01  1.6794E-01  2.7357E-01  3.6766E-01
  3.8507E-01  3.8507E-01
  prteigrs : nnsclo,ikpt=   10   39 max resid (incl. the buffer)=  1.63135E-11
 Non-SCF case, kpt   40 (  0.00000  0.18500  0.18500), residuals and eigenvalues=
  2.89E-13  1.11E-13  2.69E-13  1.02E-13  5.78E-13  8.14E-13  1.56E-12  1.61E-11
 -2.0452E-01  1.3024E-01  1.6627E-01  1.6627E-01  2.7218E-01  3.6540E-01
  3.8812E-01  3.8812E-01
  prteigrs : nnsclo,ikpt=   10   40 max resid (incl. the buffer)=  1.60950E-11
 Non-SCF case, kpt   41 (  0.00000  0.19000  0.19000), residuals and eigenvalues=
  2.59E-13  1.06E-13  2.92E-13  1.09E-13  6.36E-13  6.37E-13  2.45E-12  3.33E-11
 -2.0331E-01  1.2699E-01  1.6463E-01  1.6463E-01  2.7080E-01  3.6300E-01
  3.9120E-01  3.9120E-01
  prteigrs : nnsclo,ikpt=   10   41 max resid (incl. the buffer)=  3.32522E-11
 Non-SCF case, kpt   42 (  0.00000  0.19500  0.19500), residuals and eigenvalues=
  2.34E-13  1.05E-13  3.19E-13  1.18E-13  7.03E-13  4.90E-13  3.42E-12  7.42E-11
 -2.0207E-01  1.2374E-01  1.6300E-01  1.6300E-01  2.6944E-01  3.6048E-01
  3.9429E-01  3.9429E-01
  prteigrs : nnsclo,ikpt=   10   42 max resid (incl. the buffer)=  7.41807E-11
 Non-SCF case, kpt   43 (  0.00000  0.20000  0.20000), residuals and eigenvalues=
  2.14E-13  1.07E-13  3.48E-13  1.31E-13  7.78E-13  3.74E-13  4.07E-12  1.28E-10
 -2.0080E-01  1.2047E-01  1.6138E-01  1.6138E-01  2.6808E-01  3.5787E-01
  3.9740E-01  3.9740E-01
  prteigrs : nnsclo,ikpt=   10   43 max resid (incl. the buffer)=  1.27641E-10
 Non-SCF case, kpt   44 (  0.00000  0.20500  0.20500), residuals and eigenvalues=
  2.00E-13  1.13E-13  3.81E-13  1.46E-13  8.56E-13  2.85E-13  4.53E-12  1.82E-10
 -1.9949E-01  1.1720E-01  1.5979E-01  1.5979E-01  2.6675E-01  3.5518E-01
  4.0053E-01  4.0053E-01
  prteigrs : nnsclo,ikpt=   10   44 max resid (incl. the buffer)=  1.82224E-10
 Non-SCF case, kpt   45 (  0.00000  0.21000  0.21000), residuals and eigenvalues=
  1.91E-13  1.23E-13  4.16E-13  1.64E-13  9.36E-13  2.18E-13  4.96E-12  2.35E-10
 -1.9816E-01  1.1392E-01  1.5821E-01  1.5821E-01  2.6543E-01  3.5244E-01
  4.0367E-01  4.0367E-01
  prteigrs : nnsclo,ikpt=   10   45 max resid (incl. the buffer)=  2.34581E-10
 Non-SCF case, kpt   46 (  0.00000  0.21500  0.21500), residuals and eigenvalues=
  1.87E-13  1.37E-13  4.52E-13  1.84E-13  1.89E-13  9.56E-13  5.49E-12  2.86E-10
 -1.9679E-01  1.1063E-01  1.5666E-01  1.5666E-01  2.6412E-01  3.4966E-01
  4.0683E-01  4.0683E-01
  prteigrs : nnsclo,ikpt=   10   46 max resid (incl. the buffer)=  2.85799E-10
 Non-SCF case, kpt   47 (  0.00000  0.22000  0.22000), residuals and eigenvalues=
  1.87E-13  1.53E-13  4.87E-13  2.07E-13  1.99E-13  7.04E-13  6.26E-12  3.38E-10
 -1.9540E-01  1.0734E-01  1.5512E-01  1.5512E-01  2.6284E-01  3.4684E-01
  4.1001E-01  4.1001E-01
  prteigrs : nnsclo,ikpt=   10   47 max resid (incl. the buffer)=  3.38311E-10
 Non-SCF case, kpt   48 (  0.00000  0.22500  0.22500), residuals and eigenvalues=
  1.89E-13  1.72E-13  5.19E-13  2.31E-13  2.06E-13  5.33E-13  7.46E-12  3.95E-10
 -1.9397E-01  1.0404E-01  1.5361E-01  1.5361E-01  2.6157E-01  3.4400E-01
  4.1320E-01  4.1320E-01
  prteigrs : nnsclo,ikpt=   10   48 max resid (incl. the buffer)=  3.94917E-10
 Non-SCF case, kpt   49 (  0.00000  0.23000  0.23000), residuals and eigenvalues=
  1.92E-13  1.92E-13  5.45E-13  2.56E-13  2.08E-13  4.12E-13  9.50E-12  4.60E-10
 -1.9251E-01  1.0074E-01  1.5211E-01  1.5211E-01  2.6032E-01  3.4115E-01
  4.1640E-01  4.1640E-01
  prteigrs : nnsclo,ikpt=   10   49 max resid (incl. the buffer)=  4.59910E-10
 Non-SCF case, kpt   50 (  0.00000  0.23500  0.23500), residuals and eigenvalues=
  1.95E-13  2.14E-13  5.64E-13  2.81E-13  2.05E-13  3.24E-13  1.31E-11  5.41E-10
 -1.9103E-01  9.7428E-02  1.5064E-01  1.5064E-01  2.5910E-01  3.3829E-01
  4.1961E-01  4.1961E-01
  prteigrs : nnsclo,ikpt=   10   50 max resid (incl. the buffer)=  5.41052E-10
 Non-SCF case, kpt   51 (  0.00000  0.24000  0.24000), residuals and eigenvalues=
  1.98E-13  2.36E-13  5.74E-13  3.03E-13  1.98E-13  2.57E-13  1.97E-11  6.48E-10
 -1.8951E-01  9.4117E-02  1.4919E-01  1.4919E-01  2.5789E-01  3.3544E-01
  4.2284E-01  4.2284E-01
  prteigrs : nnsclo,ikpt=   10   51 max resid (incl. the buffer)=  6.48286E-10
 Non-SCF case, kpt   52 (  0.00000  0.24500  0.24500), residuals and eigenvalues=
  1.36E-13  1.13E-13  2.46E-13  4.46E-13  2.37E-13  7.67E-13  1.18E-09  2.70E-08
 -1.8796E-01  9.0762E-02  1.4775E-01  1.4775E-01  2.5658E-01  3.3243E-01
  4.2594E-01  4.2594E-01
  prteigrs : nnsclo,ikpt=   10   52 max resid (incl. the buffer)=  2.70081E-08
 Non-SCF case, kpt   53 (  0.00000  0.25000  0.25000), residuals and eigenvalues=
  1.26E-13  9.10E-14  2.39E-13  3.27E-13  1.87E-13  4.33E-13  1.11E-09  2.48E-08
 -1.8638E-01  8.7444E-02  1.4634E-01  1.4634E-01  2.5542E-01  3.2960E-01
  4.2919E-01  4.2919E-01
  prteigrs : nnsclo,ikpt=   10   53 max resid (incl. the buffer)=  2.47961E-08
 Non-SCF case, kpt   54 (  0.00000  0.25500  0.25500), residuals and eigenvalues=
  8.60E-13  9.63E-13  1.72E-13  8.52E-13  5.69E-13  5.91E-13  2.32E-10  1.83E-09
 -1.8475E-01  8.4130E-02  1.4501E-01  1.4501E-01  2.5430E-01  3.2689E-01
  4.3245E-01  4.3245E-01
  prteigrs : nnsclo,ikpt=   10   54 max resid (incl. the buffer)=  1.83040E-09
 Non-SCF case, kpt   55 (  0.00000  0.26000  0.26000), residuals and eigenvalues=
  8.34E-13  9.64E-13  1.79E-13  8.60E-13  5.98E-13  4.70E-13  2.36E-10  2.03E-09
 -1.8311E-01  8.0808E-02  1.4366E-01  1.4366E-01  2.5319E-01  3.2410E-01
  4.3572E-01  4.3572E-01
  prteigrs : nnsclo,ikpt=   10   55 max resid (incl. the buffer)=  2.03219E-09
 Non-SCF case, kpt   56 (  0.00000  0.26500  0.26500), residuals and eigenvalues=
  8.06E-13  9.60E-13  1.86E-13  8.69E-13  6.33E-13  3.80E-13  2.36E-10  2.29E-09
 -1.8144E-01  7.7485E-02  1.4232E-01  1.4232E-01  2.5211E-01  3.2133E-01
  4.3901E-01  4.3901E-01
  prteigrs : nnsclo,ikpt=   10   56 max resid (incl. the buffer)=  2.28834E-09
 Non-SCF case, kpt   57 (  0.00000  0.27000  0.27000), residuals and eigenvalues=
  7.74E-13  9.51E-13  1.93E-13  8.80E-13  6.70E-13  3.13E-13  2.49E-10  2.61E-09
 -1.7974E-01  7.4161E-02  1.4101E-01  1.4101E-01  2.5105E-01  3.1859E-01
  4.4230E-01  4.4230E-01
  prteigrs : nnsclo,ikpt=   10   57 max resid (incl. the buffer)=  2.61167E-09
 Non-SCF case, kpt   58 (  0.00000  0.27500  0.27500), residuals and eigenvalues=
  7.40E-13  9.36E-13  1.99E-13  8.93E-13  7.07E-13  2.61E-13  3.02E-10  3.01E-09
 -1.7801E-01  7.0836E-02  1.3973E-01  1.3973E-01  2.5003E-01  3.1588E-01
  4.4560E-01  4.4560E-01
  prteigrs : nnsclo,ikpt=   10   58 max resid (incl. the buffer)=  3.00960E-09
 Non-SCF case, kpt   59 (  0.00000  0.28000  0.28000), residuals and eigenvalues=
  7.01E-13  9.15E-13  2.04E-13  9.07E-13  7.41E-13  2.21E-13  4.25E-10  3.41E-09
 -1.7626E-01  6.7511E-02  1.3847E-01  1.3847E-01  2.4903E-01  3.1320E-01
  4.4891E-01  4.4891E-01
  prteigrs : nnsclo,ikpt=   10   59 max resid (incl. the buffer)=  3.41338E-09
 Non-SCF case, kpt   60 (  0.00000  0.28500  0.28500), residuals and eigenvalues=
  6.59E-13  8.90E-13  2.09E-13  9.23E-13  7.70E-13  1.89E-13  6.36E-10  3.62E-09
 -1.7447E-01  6.4187E-02  1.3724E-01  1.3724E-01  2.4806E-01  3.1056E-01
  4.5223E-01  4.5223E-01
  prteigrs : nnsclo,ikpt=   10   60 max resid (incl. the buffer)=  3.62477E-09
 Non-SCF case, kpt   61 (  0.00000  0.29000  0.29000), residuals and eigenvalues=
  6.13E-13  8.61E-13  2.13E-13  9.40E-13  7.95E-13  9.63E-13  8.97E-10  3.40E-09
 -1.7265E-01  6.0863E-02  1.3603E-01  1.3603E-01  2.4711E-01  3.0795E-01
  4.5556E-01  4.5556E-01
  prteigrs : nnsclo,ikpt=   10   61 max resid (incl. the buffer)=  3.40489E-09
 Non-SCF case, kpt   62 (  0.00000  0.29500  0.29500), residuals and eigenvalues=
  5.64E-13  8.29E-13  2.16E-13  9.59E-13  8.13E-13  8.31E-13  1.04E-09  2.70E-09
 -1.7080E-01  5.7541E-02  1.3485E-01  1.3485E-01  2.4620E-01  3.0538E-01
  4.5890E-01  4.5890E-01
  prteigrs : nnsclo,ikpt=   10   62 max resid (incl. the buffer)=  2.70213E-09
 Non-SCF case, kpt   63 (  0.00000  0.30000  0.30000), residuals and eigenvalues=
  5.11E-13  7.94E-13  2.18E-13  9.81E-13  8.26E-13  7.18E-13  8.31E-10  1.77E-09
 -1.6893E-01  5.4221E-02  1.3370E-01  1.3370E-01  2.4532E-01  3.0286E-01
  4.6225E-01  4.6225E-01
  prteigrs : nnsclo,ikpt=   10   63 max resid (incl. the buffer)=  1.77241E-09
 Non-SCF case, kpt   64 (  0.00000  0.30500  0.30500), residuals and eigenvalues=
  4.56E-13  7.59E-13  2.20E-13  1.10E-13  8.32E-13  6.20E-13  4.23E-10  1.07E-09
 -1.6702E-01  5.0903E-02  1.3257E-01  1.3257E-01  2.4447E-01  3.0037E-01
  4.6560E-01  4.6560E-01
  prteigrs : nnsclo,ikpt=   10   64 max resid (incl. the buffer)=  1.06599E-09
 Non-SCF case, kpt   65 (  0.00000  0.31000  0.31000), residuals and eigenvalues=
  3.99E-13  7.24E-13  2.21E-13  1.10E-13  8.31E-13  5.37E-13  3.42E-10  8.71E-10
 -1.6509E-01  4.7587E-02  1.3146E-01  1.3146E-01  2.4365E-01  2.9792E-01
  4.6897E-01  4.6897E-01
  prteigrs : nnsclo,ikpt=   10   65 max resid (incl. the buffer)=  8.71234E-10
 Non-SCF case, kpt   66 (  0.00000  0.31500  0.31500), residuals and eigenvalues=
  6.16E-13  6.89E-13  2.22E-13  1.11E-13  8.25E-13  4.66E-13  5.68E-10  1.01E-09
 -1.6313E-01  4.4274E-02  1.3039E-01  1.3039E-01  2.4286E-01  2.9552E-01
  4.7234E-01  4.7234E-01
  prteigrs : nnsclo,ikpt=   10   66 max resid (incl. the buffer)=  1.01372E-09
 Non-SCF case, kpt   67 (  0.00000  0.32000  0.32000), residuals and eigenvalues=
  5.06E-13  6.56E-13  2.22E-13  1.11E-13  8.15E-13  4.05E-13  8.13E-10  1.26E-09
 -1.6114E-01  4.0965E-02  1.2934E-01  1.2934E-01  2.4210E-01  2.9316E-01
  4.7572E-01  4.7572E-01
  prteigrs : nnsclo,ikpt=   10   67 max resid (incl. the buffer)=  1.26294E-09
 Non-SCF case, kpt   68 (  0.00000  0.32500  0.32500), residuals and eigenvalues=
  4.04E-13  6.23E-13  2.21E-13  1.10E-13  8.01E-13  3.53E-13  1.03E-09  1.51E-09
 -1.5912E-01  3.7659E-02  1.2832E-01  1.2832E-01  2.4138E-01  2.9084E-01
  4.7910E-01  4.7910E-01
  prteigrs : nnsclo,ikpt=   10   68 max resid (incl. the buffer)=  1.51452E-09
 Non-SCF case, kpt   69 (  0.00000  0.33000  0.33000), residuals and eigenvalues=
  2.64E-13  1.54E-13  3.40E-13  3.86E-13  9.04E-13  2.61E-13  3.92E-10  1.42E-09
 -1.5707E-01  3.4353E-02  1.2732E-01  1.2732E-01  2.4058E-01  2.8846E-01
  4.8245E-01  4.8245E-01
  prteigrs : nnsclo,ikpt=   10   69 max resid (incl. the buffer)=  1.41778E-09
 Non-SCF case, kpt   70 (  0.00000  0.33500  0.33500), residuals and eigenvalues=
  2.21E-13  9.76E-13  3.66E-13  3.76E-13  7.96E-13  9.77E-13  4.72E-10  1.62E-09
 -1.5499E-01  3.1056E-02  1.2635E-01  1.2635E-01  2.3992E-01  2.8623E-01
  4.8585E-01  4.8585E-01
  prteigrs : nnsclo,ikpt=   10   70 max resid (incl. the buffer)=  1.62220E-09
 Non-SCF case, kpt   71 (  0.00000  0.34000  0.34000), residuals and eigenvalues=
  1.94E-13  9.31E-13  3.93E-13  3.64E-13  7.08E-13  8.22E-13  5.61E-10  2.16E-09
 -1.5289E-01  2.7765E-02  1.2541E-01  1.2541E-01  2.3930E-01  2.8405E-01
  4.8926E-01  4.8926E-01
  prteigrs : nnsclo,ikpt=   10   71 max resid (incl. the buffer)=  2.16107E-09
 Non-SCF case, kpt   72 (  0.00000  0.34500  0.34500), residuals and eigenvalues=
  5.95E-13  1.51E-13  7.31E-13  8.51E-13  7.34E-13  5.80E-13  2.72E-10  1.50E-09
 -1.5074E-01  2.4497E-02  1.2456E-01  1.2456E-01  2.3871E-01  2.8205E-01
  4.9277E-01  4.9277E-01
  prteigrs : nnsclo,ikpt=   10   72 max resid (incl. the buffer)=  1.50451E-09
 Non-SCF case, kpt   73 (  0.00000  0.35000  0.35000), residuals and eigenvalues=
  5.33E-13  1.63E-13  7.32E-13  8.71E-13  6.99E-13  5.33E-13  2.53E-10  1.40E-09
 -1.4858E-01  2.1217E-02  1.2367E-01  1.2367E-01  2.3815E-01  2.7996E-01
  4.9619E-01  4.9619E-01
  prteigrs : nnsclo,ikpt=   10   73 max resid (incl. the buffer)=  1.39996E-09
 Non-SCF case, kpt   74 (  0.00000  0.35500  0.35500), residuals and eigenvalues=
  4.75E-13  1.75E-13  7.27E-13  8.91E-13  6.69E-13  4.90E-13  2.54E-10  1.31E-09
 -1.4640E-01  1.7944E-02  1.2281E-01  1.2281E-01  2.3763E-01  2.7792E-01
  4.9962E-01  4.9962E-01
  prteigrs : nnsclo,ikpt=   10   74 max resid (incl. the buffer)=  1.31444E-09
 Non-SCF case, kpt   75 (  0.00000  0.36000  0.36000), residuals and eigenvalues=
  4.22E-13  1.87E-13  7.16E-13  9.13E-13  6.44E-13  4.51E-13  2.82E-10  1.27E-09
 -1.4419E-01  1.4677E-02  1.2199E-01  1.2199E-01  2.3715E-01  2.7592E-01
  5.0305E-01  5.0305E-01
  prteigrs : nnsclo,ikpt=   10   75 max resid (incl. the buffer)=  1.27181E-09
 Non-SCF case, kpt   76 (  0.00000  0.36500  0.36500), residuals and eigenvalues=
  4.59E-13  3.27E-13  1.36E-13  1.03E-13  7.50E-13  2.14E-13  3.25E-10  7.04E-09
 -1.4195E-01  1.1425E-02  1.2120E-01  1.2120E-01  2.3674E-01  2.7405E-01
  5.0689E-01  5.0689E-01
  prteigrs : nnsclo,ikpt=   10   76 max resid (incl. the buffer)=  7.04268E-09
 Non-SCF case, kpt   77 (  0.00000  0.37000  0.37000), residuals and eigenvalues=
  4.27E-13  3.09E-13  1.37E-13  1.02E-13  7.52E-13  1.99E-13  3.61E-10  6.96E-09
 -1.3968E-01  8.1746E-03  1.2043E-01  1.2043E-01  2.3633E-01  2.7215E-01
  5.1033E-01  5.1033E-01
  prteigrs : nnsclo,ikpt=   10   77 max resid (incl. the buffer)=  6.96170E-09
 Non-SCF case, kpt   78 (  0.00000  0.37500  0.37500), residuals and eigenvalues=
  3.95E-13  2.93E-13  6.12E-13  5.57E-13  7.50E-13  1.87E-13  3.96E-10  6.94E-09
 -1.3739E-01  4.9322E-03  1.1968E-01  1.1968E-01  2.3595E-01  2.7030E-01
  5.1378E-01  5.1378E-01
  prteigrs : nnsclo,ikpt=   10   78 max resid (incl. the buffer)=  6.94412E-09
 Non-SCF case, kpt   79 (  0.00000  0.38000  0.38000), residuals and eigenvalues=
  3.63E-13  2.79E-13  5.76E-13  5.35E-13  7.45E-13  1.76E-13  4.27E-10  6.98E-09
 -1.3507E-01  1.6987E-03  1.1896E-01  1.1896E-01  2.3561E-01  2.6850E-01
  5.1723E-01  5.1723E-01
  prteigrs : nnsclo,ikpt=   10   79 max resid (incl. the buffer)=  6.98253E-09
 Non-SCF case, kpt   80 (  0.00000  0.38500  0.38500), residuals and eigenvalues=
  3.30E-13  2.64E-13  5.44E-13  5.19E-13  7.39E-13  1.68E-13  4.54E-10  7.08E-09
 -1.3273E-01 -1.5256E-03  1.1828E-01  1.1828E-01  2.3530E-01  2.6674E-01
  5.2068E-01  5.2068E-01
  prteigrs : nnsclo,ikpt=   10   80 max resid (incl. the buffer)=  7.07782E-09
 Non-SCF case, kpt   81 (  0.00000  0.39000  0.39000), residuals and eigenvalues=
  2.98E-13  2.51E-13  5.15E-13  5.06E-13  7.32E-13  1.61E-13  4.79E-10  7.24E-09
 -1.3036E-01 -4.7402E-03  1.1762E-01  1.1762E-01  2.3504E-01  2.6503E-01
  5.2414E-01  5.2414E-01
  prteigrs : nnsclo,ikpt=   10   81 max resid (incl. the buffer)=  7.24131E-09
 Non-SCF case, kpt   82 (  0.00000  0.39500  0.39500), residuals and eigenvalues=
  2.67E-13  2.38E-13  4.90E-13  4.98E-13  7.25E-13  1.56E-13  5.07E-10  7.49E-09
 -1.2796E-01 -7.9446E-03  1.1699E-01  1.1699E-01  2.3481E-01  2.6337E-01
  5.2759E-01  5.2759E-01
  prteigrs : nnsclo,ikpt=   10   82 max resid (incl. the buffer)=  7.49201E-09
 Non-SCF case, kpt   83 (  0.00000  0.40000  0.40000), residuals and eigenvalues=
  1.60E-13  1.32E-13  1.80E-13  1.46E-13  2.18E-13  2.37E-13  8.09E-10  6.08E-09
 -1.2554E-01 -1.1154E-02  1.1638E-01  1.1638E-01  2.3462E-01  2.6167E-01
  5.3102E-01  5.3102E-01
  prteigrs : nnsclo,ikpt=   10   83 max resid (incl. the buffer)=  6.07585E-09
 Non-SCF case, kpt   84 (  0.00000  0.40500  0.40500), residuals and eigenvalues=
  1.50E-13  1.25E-13  1.78E-13  1.47E-13  2.04E-13  2.33E-13  8.69E-10  7.15E-09
 -1.2309E-01 -1.4337E-02  1.1581E-01  1.1581E-01  2.3447E-01  2.6011E-01
  5.3447E-01  5.3447E-01
  prteigrs : nnsclo,ikpt=   10   84 max resid (incl. the buffer)=  7.14686E-09
 Non-SCF case, kpt   85 (  0.00000  0.41000  0.41000), residuals and eigenvalues=
  1.47E-13  1.19E-13  1.75E-13  1.47E-13  1.89E-13  2.24E-13  9.17E-10  8.19E-09
 -1.2062E-01 -1.7507E-02  1.1527E-01  1.1527E-01  2.3435E-01  2.5859E-01
  5.3792E-01  5.3792E-01
  prteigrs : nnsclo,ikpt=   10   85 max resid (incl. the buffer)=  8.18868E-09
 Non-SCF case, kpt   86 (  0.00000  0.41500  0.41500), residuals and eigenvalues=
  1.48E-13  1.13E-13  1.71E-13  1.45E-13  1.73E-13  2.12E-13  9.48E-10  8.98E-09
 -1.1813E-01 -2.0666E-02  1.1475E-01  1.1475E-01  2.3428E-01  2.5712E-01
  5.4136E-01  5.4136E-01
  prteigrs : nnsclo,ikpt=   10   86 max resid (incl. the buffer)=  8.97598E-09
 Non-SCF case, kpt   87 (  0.00000  0.42000  0.42000), residuals and eigenvalues=
  1.53E-13  9.88E-13  1.67E-13  1.43E-13  1.58E-13  1.96E-13  9.60E-10  9.17E-09
 -1.1561E-01 -2.3812E-02  1.1427E-01  1.1427E-01  2.3425E-01  2.5570E-01
  5.4479E-01  5.4479E-01
  prteigrs : nnsclo,ikpt=   10   87 max resid (incl. the buffer)=  9.17455E-09
 Non-SCF case, kpt   88 (  0.00000  0.42500  0.42500), residuals and eigenvalues=
  1.60E-13  9.35E-13  1.61E-13  1.40E-13  1.44E-13  1.81E-13  9.61E-10  8.43E-09
 -1.1306E-01 -2.6946E-02  1.1381E-01  1.1381E-01  2.3425E-01  2.5433E-01
  5.4821E-01  5.4821E-01
  prteigrs : nnsclo,ikpt=   10   88 max resid (incl. the buffer)=  8.42941E-09
 Non-SCF case, kpt   89 (  0.00000  0.43000  0.43000), residuals and eigenvalues=
  1.69E-13  8.78E-13  1.54E-13  1.36E-13  1.33E-13  1.71E-13  9.66E-10  6.61E-09
 -1.1049E-01 -3.0066E-02  1.1339E-01  1.1339E-01  2.3430E-01  2.5300E-01
  5.5161E-01  5.5161E-01
  prteigrs : nnsclo,ikpt=   10   89 max resid (incl. the buffer)=  6.60881E-09
 Non-SCF case, kpt   90 (  0.00000  0.43500  0.43500), residuals and eigenvalues=
  1.77E-13  8.19E-13  1.47E-13  1.31E-13  1.30E-13  1.72E-13  9.74E-10  4.36E-09
 -1.0790E-01 -3.3173E-02  1.1299E-01  1.1299E-01  2.3438E-01  2.5172E-01
  5.5499E-01  5.5499E-01
  prteigrs : nnsclo,ikpt=   10   90 max resid (incl. the buffer)=  4.35512E-09
 Non-SCF case, kpt   91 (  0.00000  0.44000  0.44000), residuals and eigenvalues=
  1.98E-13  1.14E-13  3.97E-13  2.96E-13  4.72E-13  4.31E-13  2.61E-09  5.93E-09
 -1.0528E-01 -3.6286E-02  1.1261E-01  1.1261E-01  2.3451E-01  2.5047E-01
  5.5808E-01  5.5808E-01
  prteigrs : nnsclo,ikpt=   10   91 max resid (incl. the buffer)=  5.93273E-09
 Non-SCF case, kpt   92 (  0.00000  0.44500  0.44500), residuals and eigenvalues=
  1.91E-13  2.15E-13  4.00E-13  2.67E-13  5.32E-13  4.09E-13  5.25E-09  5.72E-09
 -1.0264E-01 -3.9364E-02  1.1227E-01  1.1227E-01  2.3468E-01  2.4929E-01
  5.6138E-01  5.6138E-01
  prteigrs : nnsclo,ikpt=   10   92 max resid (incl. the buffer)=  5.72352E-09
 Non-SCF case, kpt   93 (  0.00000  0.45000  0.45000), residuals and eigenvalues=
  1.87E-13  2.12E-13  4.03E-13  2.43E-13  6.07E-13  4.21E-13  4.36E-09  9.40E-09
 -9.9981E-02 -4.2428E-02  1.1196E-01  1.1196E-01  2.3489E-01  2.4815E-01
  5.6464E-01  5.6464E-01
  prteigrs : nnsclo,ikpt=   10   93 max resid (incl. the buffer)=  9.39751E-09
 Non-SCF case, kpt   94 (  0.00000  0.45500  0.45500), residuals and eigenvalues=
  1.84E-13  2.22E-13  3.98E-13  2.25E-13  6.94E-13  4.81E-13  7.38E-09  2.94E-08
 -9.7297E-02 -4.5476E-02  1.1168E-01  1.1168E-01  2.3514E-01  2.4706E-01
  5.6782E-01  5.6782E-01
  prteigrs : nnsclo,ikpt=   10   94 max resid (incl. the buffer)=  2.93761E-08
 Non-SCF case, kpt   95 (  0.00000  0.46000  0.46000), residuals and eigenvalues=
  1.78E-13  2.48E-13  3.76E-13  2.14E-13  7.75E-13  5.96E-13  1.88E-08  8.40E-08
 -9.4590E-02 -4.8509E-02  1.1143E-01  1.1143E-01  2.3543E-01  2.4602E-01
  5.7092E-01  5.7092E-01
  prteigrs : nnsclo,ikpt=   10   95 max resid (incl. the buffer)=  8.39926E-08
 Non-SCF case, kpt   96 (  0.00000  0.46500  0.46500), residuals and eigenvalues=
  1.55E-13  1.19E-13  3.36E-13  2.07E-13  8.21E-13  7.30E-13  4.17E-08  2.05E-07
 -9.1861E-02 -5.1525E-02  1.1121E-01  1.1121E-01  2.3576E-01  2.4502E-01
  5.7391E-01  5.7391E-01
  prteigrs : nnsclo,ikpt=   10   96 max resid (incl. the buffer)=  2.04674E-07
 Non-SCF case, kpt   97 (  0.00000  0.47000  0.47000), residuals and eigenvalues=
  1.42E-13  1.20E-13  2.84E-13  1.98E-13  7.97E-13  8.02E-13  6.24E-08  3.70E-07
 -8.9111E-02 -5.4524E-02  1.1101E-01  1.1101E-01  2.3614E-01  2.4407E-01
  5.7674E-01  5.7674E-01
  prteigrs : nnsclo,ikpt=   10   97 max resid (incl. the buffer)=  3.70178E-07
 Non-SCF case, kpt   98 (  0.00000  0.47500  0.47500), residuals and eigenvalues=
  1.32E-13  1.12E-13  2.45E-13  1.83E-13  7.21E-13  7.45E-13  8.20E-08  5.49E-07
 -8.6339E-02 -5.7507E-02  1.1085E-01  1.1085E-01  2.3656E-01  2.4316E-01
  5.7936E-01  5.7936E-01
  prteigrs : nnsclo,ikpt=   10   98 max resid (incl. the buffer)=  5.48605E-07
 Non-SCF case, kpt   99 (  0.00000  0.48000  0.48000), residuals and eigenvalues=
  1.29E-13  1.01E-13  2.50E-13  4.47E-13  6.79E-13  6.14E-13  1.45E-07  7.89E-07
 -8.3546E-02 -6.0472E-02  1.1072E-01  1.1072E-01  2.3702E-01  2.4230E-01
  5.8171E-01  5.8171E-01
  prteigrs : nnsclo,ikpt=   10   99 max resid (incl. the buffer)=  7.88815E-07
 Non-SCF case, kpt  100 (  0.00000  0.48500  0.48500), residuals and eigenvalues=
  8.13E-14  8.01E-14  5.90E-13  2.34E-13  3.95E-13  1.38E-13  1.10E-07  6.47E-06
 -8.0734E-02 -6.3439E-02  1.1059E-01  1.1059E-01  2.3752E-01  2.4148E-01
  5.8348E-01  5.8348E-01
  prteigrs : nnsclo,ikpt=   10  100 max resid (incl. the buffer)=  6.47067E-06
 Non-SCF case, kpt  101 (  0.00000  0.49000  0.49000), residuals and eigenvalues=
  7.83E-14  7.68E-14  5.11E-13  2.23E-13  3.04E-13  1.59E-13  3.81E-08  5.51E-06
 -7.7900E-02 -6.6369E-02  1.1052E-01  1.1052E-01  2.3807E-01  2.4071E-01
  5.8502E-01  5.8503E-01
  prteigrs : nnsclo,ikpt=   10  101 max resid (incl. the buffer)=  5.50765E-06
 Non-SCF case, kpt  102 (  0.00000  0.49500  0.49500), residuals and eigenvalues=
  8.79E-13  9.40E-13  5.37E-13  1.97E-13  1.85E-13  1.60E-13  3.83E-08  1.43E-05
 -7.5046E-02 -6.9281E-02  1.1047E-01  1.1047E-01  2.3867E-01  2.3998E-01
  5.8601E-01  5.8601E-01
  prteigrs : nnsclo,ikpt=   10  102 max resid (incl. the buffer)=  1.43447E-05
 Non-SCF case, kpt  103 (  0.00000  0.50000  0.50000), residuals and eigenvalues=
  2.80E-13  2.72E-13  7.49E-13  2.43E-13  9.26E-14  1.58E-13  4.18E-08  2.68E-07
 -7.2173E-02 -7.2173E-02  1.1046E-01  1.1046E-01  2.3930E-01  2.3930E-01
  5.8634E-01  5.8634E-01
  prteigrs : nnsclo,ikpt=   10  103 max resid (incl. the buffer)=  2.68421E-07
 Non-SCF case, kpt  104 (  0.50000  0.75000  0.75000), residuals and eigenvalues=
  3.63E-13  6.81E-13  8.22E-13  2.89E-13  4.09E-13  4.85E-13  4.68E-12  3.76E-10
 -1.5033E-01  1.4343E-02  7.6031E-02  1.6763E-01  3.0495E-01  3.9302E-01
  4.0529E-01  4.3999E-01
  prteigrs : nnsclo,ikpt=   10  104 max resid (incl. the buffer)=  3.75578E-10
 Non-SCF case, kpt  105 (  1.00000  1.00000  1.00000), residuals and eigenvalues=
  5.80E-13  3.49E-13  4.56E-13  3.16E-13  3.45E-13  2.86E-13  6.46E-13  2.70E-13
 -2.2675E-01  2.1749E-01  2.1749E-01  2.1749E-01  3.1047E-01  3.1047E-01
  3.1047E-01  3.3727E-01

 Integrated electronic density in atomic spheres:
 ------------------------------------------------
 Atom  Sphere_radius  Integrated_density
    1        2.00000          1.71561664
    2        2.00000          1.71561664
================================================================================

 ----iterations are completed or convergence reached----

 Mean square residual over all n,k,spin=   4.1550E-08; max=  5.4354E-06
 reduced coordinates (array xred) for    2 atoms
       0.000000000000      0.000000000000      0.000000000000
       0.250000000000      0.250000000000      0.250000000000

 cartesian coordinates (angstrom) at end:
    1      0.00000000000000     0.00000000000000     0.00000000000000
    2      1.35151859073886     1.35151859073886     1.35151859073886
 length scales= 10.216000000000 10.216000000000 10.216000000000 bohr
              =  5.406074362955  5.406074362955  5.406074362955 angstroms
 prteigrs : about to open file tbase3_xo_DS2_EIG
 Eigenvalues (   eV  ) for nkpt= 105  k points:
 kpt#   1, nband=  8, wtk=  1.00000, kpt=  0.5000  0.0000  0.0000 (reduced coord)
  -3.78815   -1.15872    4.69668    4.69668    7.38795    9.23867    9.23867   13.45707
 kpt#   2, nband=  8, wtk=  1.00000, kpt=  0.2500  0.0000  0.0000 (reduced coord)
  -5.35724    1.93333    5.13896    5.13896    7.87420    9.40367    9.40367   12.71013
 kpt#   3, nband=  8, wtk=  1.00000, kpt=  0.0000  0.0000  0.0000 (reduced coord)
  -6.17005    5.91814    5.91814    5.91814    8.44836    8.44836    8.44836    9.17755
 kpt#   4, nband=  8, wtk=  1.00000, kpt=  0.0000  0.0050  0.0050 (reduced coord)
  -6.16960    5.91504    5.91614    5.91614    8.44719    8.45091    8.45091    9.18057
 kpt#   5, nband=  8, wtk=  1.00000, kpt=  0.0000  0.0100  0.0100 (reduced coord)
  -6.16827    5.90579    5.91015    5.91015    8.44370    8.45852    8.45852    9.18958
 kpt#   6, nband=  8, wtk=  1.00000, kpt=  0.0000  0.0150  0.0150 (reduced coord)
  -6.16605    5.89048    5.90026    5.90026    8.43789    8.47112    8.47112    9.20446
 kpt#   7, nband=  8, wtk=  1.00000, kpt=  0.0000  0.0200  0.0200 (reduced coord)
  -6.16293    5.86930    5.88657    5.88657    8.42980    8.48858    8.48858    9.22502
 kpt#   8, nband=  8, wtk=  1.00000, kpt=  0.0000  0.0250  0.0250 (reduced coord)
  -6.15893    5.84247    5.86926    5.86926    8.41948    8.51076    8.51076    9.25100
 kpt#   9, nband=  8, wtk=  1.00000, kpt=  0.0000  0.0300  0.0300 (reduced coord)
  -6.15404    5.81027    5.84851    5.84851    8.40697    8.53746    8.53746    9.28207
 kpt#  10, nband=  8, wtk=  1.00000, kpt=  0.0000  0.0350  0.0350 (reduced coord)
  -6.14826    5.77300    5.82454    5.82454    8.39234    8.56846    8.56846    9.31786
 kpt#  11, nband=  8, wtk=  1.00000, kpt=  0.0000  0.0400  0.0400 (reduced coord)
  -6.14168    5.73098    5.79697    5.79697    8.37556    8.60276    8.60276    9.35791
 kpt#  12, nband=  8, wtk=  1.00000, kpt=  0.0000  0.0450  0.0450 (reduced coord)
  -6.13413    5.68456    5.76725    5.76725    8.35691    8.64168    8.64168    9.40195
 kpt#  13, nband=  8, wtk=  1.00000, kpt=  0.0000  0.0500  0.0500 (reduced coord)
  -6.12569    5.63409    5.73502    5.73502    8.33637    8.68418    8.68418    9.44946
 kpt#  14, nband=  8, wtk=  1.00000, kpt=  0.0000  0.0550  0.0550 (reduced coord)
  -6.11636    5.57988    5.70052    5.70052    8.31404    8.73001    8.73001    9.49997
 kpt#  15, nband=  8, wtk=  1.00000, kpt=  0.0000  0.0600  0.0600 (reduced coord)
  -6.10630    5.52140    5.66358    5.66358    8.28711    8.77789    8.77789    9.55294
 kpt#  16, nband=  8, wtk=  1.00000, kpt=  0.0000  0.0650  0.0650 (reduced coord)
  -6.09520    5.46069    5.62525    5.62525    8.26144    8.82972    8.82972    9.60806
 kpt#  17, nband=  8, wtk=  1.00000, kpt=  0.0000  0.0700  0.0700 (reduced coord)
  -6.08322    5.39716    5.58531    5.58531    8.23427    8.88421    8.88421    9.66474
 kpt#  18, nband=  8, wtk=  1.00000, kpt=  0.0000  0.0750  0.0750 (reduced coord)
  -6.07035    5.33052    5.54393    5.54393    8.20541    8.93878    8.93878    9.72248
 kpt#  19, nband=  8, wtk=  1.00000, kpt=  0.0000  0.0800  0.0800 (reduced coord)
  -6.05660    5.26209    5.50135    5.50135    8.17555    8.99797    8.99797    9.78076
 kpt#  20, nband=  8, wtk=  1.00000, kpt=  0.0000  0.0850  0.0850 (reduced coord)
  -6.04196    5.19156    5.45771    5.45771    8.14450    9.05928    9.05928    9.83901
 kpt#  21, nband=  8, wtk=  1.00000, kpt=  0.0000  0.0900  0.0900 (reduced coord)
  -6.02644    5.11913    5.41315    5.41315    8.11235    9.12254    9.12254    9.89660
 kpt#  22, nband=  8, wtk=  1.00000, kpt=  0.0000  0.0950  0.0950 (reduced coord)
  -6.00956    5.04497    5.36868    5.36868    8.07949    9.18779    9.18779    9.95289
 kpt#  23, nband=  8, wtk=  1.00000, kpt=  0.0000  0.1000  0.1000 (reduced coord)
  -5.99230    4.96925    5.32270    5.32270    8.04541    9.25456    9.25456   10.00716
 kpt#  24, nband=  8, wtk=  1.00000, kpt=  0.0000  0.1050  0.1050 (reduced coord)
  -5.97415    4.89213    5.27619    5.27619    8.01054    9.32289    9.32289   10.05862
 kpt#  25, nband=  8, wtk=  1.00000, kpt=  0.0000  0.1100  0.1100 (reduced coord)
  -5.95513    4.81373    5.22926    5.22926    7.97495    9.39267    9.39267   10.10641
 kpt#  26, nband=  8, wtk=  1.00000, kpt=  0.0000  0.1150  0.1150 (reduced coord)
  -5.93523    4.73418    5.18202    5.18202    7.93873    9.46380    9.46380   10.14962
 kpt#  27, nband=  8, wtk=  1.00000, kpt=  0.0000  0.1200  0.1200 (reduced coord)
  -5.91446    4.65357    5.13454    5.13454    7.90196    9.53618    9.53618   10.18727
 kpt#  28, nband=  8, wtk=  1.00000, kpt=  0.0000  0.1250  0.1250 (reduced coord)
  -5.89280    4.57202    5.08691    5.08691    7.86474    9.60974    9.60974   10.21839
 kpt#  29, nband=  8, wtk=  1.00000, kpt=  0.0000  0.1300  0.1300 (reduced coord)
  -5.87028    4.48961    5.03920    5.03920    7.82712    9.68439    9.68439   10.24203
 kpt#  30, nband=  8, wtk=  1.00000, kpt=  0.0000  0.1350  0.1350 (reduced coord)
  -5.84688    4.40641    4.99147    4.99147    7.78919    9.76007    9.76007   10.25737
 kpt#  31, nband=  8, wtk=  1.00000, kpt=  0.0000  0.1400  0.1400 (reduced coord)
  -5.82261    4.32250    4.94380    4.94380    7.75102    9.83671    9.83671   10.26376
 kpt#  32, nband=  8, wtk=  1.00000, kpt=  0.0000  0.1450  0.1450 (reduced coord)
  -5.79747    4.23794    4.89622    4.89622    7.71266    9.91426    9.91426   10.26084
 kpt#  33, nband=  8, wtk=  1.00000, kpt=  0.0000  0.1500  0.1500 (reduced coord)
  -5.77146    4.15280    4.84880    4.84880    7.67419    9.99265    9.99265   10.24850
 kpt#  34, nband=  8, wtk=  1.00000, kpt=  0.0000  0.1550  0.1550 (reduced coord)
  -5.74458    4.06711    4.80158    4.80158    7.63567   10.07184   10.07184   10.22699
 kpt#  35, nband=  8, wtk=  1.00000, kpt=  0.0000  0.1600  0.1600 (reduced coord)
  -5.71684    3.98093    4.75459    4.75459    7.59715   10.15178   10.15178   10.19679
 kpt#  36, nband=  8, wtk=  1.00000, kpt=  0.0000  0.1650  0.1650 (reduced coord)
  -5.68823    3.89430    4.70789    4.70789    7.55868   10.15861   10.23242   10.23242
 kpt#  37, nband=  8, wtk=  1.00000, kpt=  0.0000  0.1700  0.1700 (reduced coord)
  -5.65876    3.80726    4.66150    4.66150    7.52032   10.11327   10.31374   10.31374
 kpt#  38, nband=  8, wtk=  1.00000, kpt=  0.0000  0.1750  0.1750 (reduced coord)
  -5.62843    3.71985    4.61546    4.61546    7.48212   10.06166   10.39569   10.39569
 kpt#  39, nband=  8, wtk=  1.00000, kpt=  0.0000  0.1800  0.1800 (reduced coord)
  -5.59724    3.63210    4.56980    4.56980    7.44411   10.00466   10.47825   10.47825
 kpt#  40, nband=  8, wtk=  1.00000, kpt=  0.0000  0.1850  0.1850 (reduced coord)
  -5.56520    3.54403    4.52454    4.52454    7.40636    9.94308   10.56136   10.56136
 kpt#  41, nband=  8, wtk=  1.00000, kpt=  0.0000  0.1900  0.1900 (reduced coord)
  -5.53230    3.45567    4.47972    4.47972    7.36888    9.87770   10.64502   10.64502
 kpt#  42, nband=  8, wtk=  1.00000, kpt=  0.0000  0.1950  0.1950 (reduced coord)
  -5.49855    3.36706    4.43535    4.43535    7.33174    9.80919   10.72919   10.72919
 kpt#  43, nband=  8, wtk=  1.00000, kpt=  0.0000  0.2000  0.2000 (reduced coord)
  -5.46394    3.27820    4.39145    4.39145    7.29495    9.73814   10.81385   10.81385
 kpt#  44, nband=  8, wtk=  1.00000, kpt=  0.0000  0.2050  0.2050 (reduced coord)
  -5.42849    3.18913    4.34806    4.34806    7.25857    9.66507   10.89897   10.89897
 kpt#  45, nband=  8, wtk=  1.00000, kpt=  0.0000  0.2100  0.2100 (reduced coord)
  -5.39219    3.09986    4.30518    4.30518    7.22261    9.59044   10.98453   10.98453
 kpt#  46, nband=  8, wtk=  1.00000, kpt=  0.0000  0.2150  0.2150 (reduced coord)
  -5.35505    3.01041    4.26283    4.26283    7.18712    9.51461   11.07051   11.07051
 kpt#  47, nband=  8, wtk=  1.00000, kpt=  0.0000  0.2200  0.2200 (reduced coord)
  -5.31707    2.92080    4.22104    4.22104    7.15212    9.43794   11.15689   11.15689
 kpt#  48, nband=  8, wtk=  1.00000, kpt=  0.0000  0.2250  0.2250 (reduced coord)
  -5.27825    2.83104    4.17981    4.17981    7.11764    9.36068   11.24366   11.24366
 kpt#  49, nband=  8, wtk=  1.00000, kpt=  0.0000  0.2300  0.2300 (reduced coord)
  -5.23859    2.74116    4.13917    4.13917    7.08371    9.28310   11.33080   11.33080
 kpt#  50, nband=  8, wtk=  1.00000, kpt=  0.0000  0.2350  0.2350 (reduced coord)
  -5.19810    2.65116    4.09911    4.09911    7.05035    9.20540   11.41829   11.41829
 kpt#  51, nband=  8, wtk=  1.00000, kpt=  0.0000  0.2400  0.2400 (reduced coord)
  -5.15677    2.56105    4.05967    4.05967    7.01760    9.12777   11.50612   11.50612
 kpt#  52, nband=  8, wtk=  1.00000, kpt=  0.0000  0.2450  0.2450 (reduced coord)
  -5.11470    2.46976    4.02040    4.02040    6.98187    9.04584   11.59034   11.59034
 kpt#  53, nband=  8, wtk=  1.00000, kpt=  0.0000  0.2500  0.2500 (reduced coord)
  -5.07173    2.37947    3.98219    3.98219    6.95039    8.96884   11.67879   11.67879
 kpt#  54, nband=  8, wtk=  1.00000, kpt=  0.0000  0.2550  0.2550 (reduced coord)
  -5.02733    2.28929    3.94601    3.94601    6.91977    8.89519   11.76759   11.76759
 kpt#  55, nband=  8, wtk=  1.00000, kpt=  0.0000  0.2600  0.2600 (reduced coord)
  -4.98272    2.19890    3.90908    3.90908    6.88964    8.81918   11.85663   11.85663
 kpt#  56, nband=  8, wtk=  1.00000, kpt=  0.0000  0.2650  0.2650 (reduced coord)
  -4.93729    2.10847    3.87281    3.87281    6.86021    8.74385   11.94596   11.94596
 kpt#  57, nband=  8, wtk=  1.00000, kpt=  0.0000  0.2700  0.2700 (reduced coord)
  -4.89105    2.01801    3.83720    3.83720    6.83151    8.66927   12.03555   12.03555
 kpt#  58, nband=  8, wtk=  1.00000, kpt=  0.0000  0.2750  0.2750 (reduced coord)
  -4.84401    1.92754    3.80227    3.80227    6.80355    8.59552   12.12542   12.12542
 kpt#  59, nband=  8, wtk=  1.00000, kpt=  0.0000  0.2800  0.2800 (reduced coord)
  -4.79615    1.83707    3.76803    3.76803    6.77635    8.52266   12.21554   12.21554
 kpt#  60, nband=  8, wtk=  1.00000, kpt=  0.0000  0.2850  0.2850 (reduced coord)
  -4.74749    1.74661    3.73448    3.73448    6.74993    8.45074   12.30590   12.30590
 kpt#  61, nband=  8, wtk=  1.00000, kpt=  0.0000  0.2900  0.2900 (reduced coord)
  -4.69803    1.65618    3.70162    3.70162    6.72430    8.37982   12.39652   12.39652
 kpt#  62, nband=  8, wtk=  1.00000, kpt=  0.0000  0.2950  0.2950 (reduced coord)
  -4.64778    1.56578    3.66947    3.66947    6.69948    8.30993   12.48736   12.48736
 kpt#  63, nband=  8, wtk=  1.00000, kpt=  0.0000  0.3000  0.3000 (reduced coord)
  -4.59674    1.47542    3.63803    3.63803    6.67548    8.24111   12.57844   12.57844
 kpt#  64, nband=  8, wtk=  1.00000, kpt=  0.0000  0.3050  0.3050 (reduced coord)
  -4.54490    1.38513    3.60731    3.60731    6.65231    8.17340   12.66974   12.66974
 kpt#  65, nband=  8, wtk=  1.00000, kpt=  0.0000  0.3100  0.3100 (reduced coord)
  -4.49229    1.29490    3.57731    3.57731    6.63000    8.10682   12.76125   12.76125
 kpt#  66, nband=  8, wtk=  1.00000, kpt=  0.0000  0.3150  0.3150 (reduced coord)
  -4.43889    1.20476    3.54804    3.54804    6.60855    8.04141   12.85298   12.85298
 kpt#  67, nband=  8, wtk=  1.00000, kpt=  0.0000  0.3200  0.3200 (reduced coord)
  -4.38472    1.11471    3.51950    3.51950    6.58797    7.97719   12.94492   12.94492
 kpt#  68, nband=  8, wtk=  1.00000, kpt=  0.0000  0.3250  0.3250 (reduced coord)
  -4.32977    1.02476    3.49170    3.49170    6.56828    7.91417   13.03706   13.03706
 kpt#  69, nband=  8, wtk=  1.00000, kpt=  0.0000  0.3300  0.3300 (reduced coord)
  -4.27407    0.93480    3.46458    3.46458    6.54662    7.84928   13.12823   13.12823
 kpt#  70, nband=  8, wtk=  1.00000, kpt=  0.0000  0.3350  0.3350 (reduced coord)
  -4.21760    0.84509    3.43827    3.43827    6.52867    7.78873   13.22074   13.22074
 kpt#  71, nband=  8, wtk=  1.00000, kpt=  0.0000  0.3400  0.3400 (reduced coord)
  -4.16037    0.75552    3.41271    3.41271    6.51164    7.72944   13.31342   13.31342
 kpt#  72, nband=  8, wtk=  1.00000, kpt=  0.0000  0.3450  0.3450 (reduced coord)
  -4.10185    0.66658    3.38941    3.38941    6.49562    7.67498   13.40909   13.40909
 kpt#  73, nband=  8, wtk=  1.00000, kpt=  0.0000  0.3500  0.3500 (reduced coord)
  -4.04314    0.57734    3.36530    3.36530    6.48048    7.61813   13.50214   13.50214
 kpt#  74, nband=  8, wtk=  1.00000, kpt=  0.0000  0.3550  0.3550 (reduced coord)
  -3.98369    0.48827    3.34196    3.34196    6.46629    7.56257   13.59535   13.59535
 kpt#  75, nband=  8, wtk=  1.00000, kpt=  0.0000  0.3600  0.3600 (reduced coord)
  -3.92350    0.39939    3.31939    3.31939    6.45306    7.50830   13.68871   13.68871
 kpt#  76, nband=  8, wtk=  1.00000, kpt=  0.0000  0.3650  0.3650 (reduced coord)
  -3.86258    0.31090    3.29799    3.29799    6.44207    7.45741   13.79309   13.79309
 kpt#  77, nband=  8, wtk=  1.00000, kpt=  0.0000  0.3700  0.3700 (reduced coord)
  -3.80093    0.22244    3.27693    3.27693    6.43078    7.40570   13.88680   13.88680
 kpt#  78, nband=  8, wtk=  1.00000, kpt=  0.0000  0.3750  0.3750 (reduced coord)
  -3.73856    0.13421    3.25665    3.25665    6.42050    7.35529   13.98061   13.98061
 kpt#  79, nband=  8, wtk=  1.00000, kpt=  0.0000  0.3800  0.3800 (reduced coord)
  -3.67547    0.04622    3.23715    3.23715    6.41121    7.30620   14.07451   14.07451
 kpt#  80, nband=  8, wtk=  1.00000, kpt=  0.0000  0.3850  0.3850 (reduced coord)
  -3.61167   -0.04151    3.21843    3.21843    6.40294    7.25842   14.16847   14.16847
 kpt#  81, nband=  8, wtk=  1.00000, kpt=  0.0000  0.3900  0.3900 (reduced coord)
  -3.54717   -0.12899    3.20049    3.20049    6.39570    7.21195   14.26248   14.26248
 kpt#  82, nband=  8, wtk=  1.00000, kpt=  0.0000  0.3950  0.3950 (reduced coord)
  -3.48196   -0.21618    3.18334    3.18334    6.38948    7.16679   14.35650   14.35650
 kpt#  83, nband=  8, wtk=  1.00000, kpt=  0.0000  0.4000  0.4000 (reduced coord)
  -3.41614   -0.30352    3.16697    3.16697    6.38430    7.12040   14.44974   14.44974
 kpt#  84, nband=  8, wtk=  1.00000, kpt=  0.0000  0.4050  0.4050 (reduced coord)
  -3.34956   -0.39012    3.15139    3.15139    6.38017    7.07784   14.54370   14.54370
 kpt#  85, nband=  8, wtk=  1.00000, kpt=  0.0000  0.4100  0.4100 (reduced coord)
  -3.28231   -0.47640    3.13661    3.13661    6.37710    7.03658   14.63753   14.63753
 kpt#  86, nband=  8, wtk=  1.00000, kpt=  0.0000  0.4150  0.4150 (reduced coord)
  -3.21438   -0.56235    3.12262    3.12262    6.37509    6.99662   14.73118   14.73118
 kpt#  87, nband=  8, wtk=  1.00000, kpt=  0.0000  0.4200  0.4200 (reduced coord)
  -3.14578   -0.64797    3.10942    3.10942    6.37415    6.95797   14.82457   14.82457
 kpt#  88, nband=  8, wtk=  1.00000, kpt=  0.0000  0.4250  0.4250 (reduced coord)
  -3.07653   -0.73323    3.09702    3.09702    6.37430    6.92061   14.91758   14.91758
 kpt#  89, nband=  8, wtk=  1.00000, kpt=  0.0000  0.4300  0.4300 (reduced coord)
  -3.00662   -0.81814    3.08542    3.08542    6.37554    6.88455   15.01011   15.01011
 kpt#  90, nband=  8, wtk=  1.00000, kpt=  0.0000  0.4350  0.4350 (reduced coord)
  -2.93607   -0.90267    3.07461    3.07461    6.37788    6.84978   15.10200   15.10200
 kpt#  91, nband=  8, wtk=  1.00000, kpt=  0.0000  0.4400  0.4400 (reduced coord)
  -2.86488   -0.98738    3.06416    3.06416    6.38132    6.81568   15.18603   15.18603
 kpt#  92, nband=  8, wtk=  1.00000, kpt=  0.0000  0.4450  0.4450 (reduced coord)
  -2.79307   -1.07116    3.05494    3.05494    6.38588    6.78347   15.27598   15.27598
 kpt#  93, nband=  8, wtk=  1.00000, kpt=  0.0000  0.4500  0.4500 (reduced coord)
  -2.72063   -1.15452    3.04652    3.04652    6.39155    6.75254   15.36453   15.36453
 kpt#  94, nband=  8, wtk=  1.00000, kpt=  0.0000  0.4550  0.4550 (reduced coord)
  -2.64758   -1.23747    3.03890    3.03890    6.39836    6.72287   15.45126   15.45126
 kpt#  95, nband=  8, wtk=  1.00000, kpt=  0.0000  0.4600  0.4600 (reduced coord)
  -2.57392   -1.31998    3.03209    3.03209    6.40631    6.69447   15.53559   15.53559
 kpt#  96, nband=  8, wtk=  1.00000, kpt=  0.0000  0.4650  0.4650 (reduced coord)
  -2.49967   -1.40206    3.02608    3.02608    6.41540    6.66733   15.61676   15.61677
 kpt#  97, nband=  8, wtk=  1.00000, kpt=  0.0000  0.4700  0.4700 (reduced coord)
  -2.42483   -1.48368    3.02087    3.02087    6.42564    6.64143   15.69376   15.69377
 kpt#  98, nband=  8, wtk=  1.00000, kpt=  0.0000  0.4750  0.4750 (reduced coord)
  -2.34941   -1.56484    3.01647    3.01647    6.43705    6.61678   15.76520   15.76520
 kpt#  99, nband=  8, wtk=  1.00000, kpt=  0.0000  0.4800  0.4800 (reduced coord)
  -2.27341   -1.64553    3.01288    3.01288    6.44962    6.59337   15.82925   15.82925
 kpt# 100, nband=  8, wtk=  1.00000, kpt=  0.0000  0.4850  0.4850 (reduced coord)
  -2.19688   -1.72628    3.00931    3.00931    6.46336    6.57094   15.87722   15.87730
 kpt# 101, nband=  8, wtk=  1.00000, kpt=  0.0000  0.4900  0.4900 (reduced coord)
  -2.11977   -1.80600    3.00730    3.00730    6.47829    6.54999   15.91927   15.91940
 kpt# 102, nband=  8, wtk=  1.00000, kpt=  0.0000  0.4950  0.4950 (reduced coord)
  -2.04212   -1.88523    3.00609    3.00609    6.49441    6.53026   15.94603   15.94626
 kpt# 103, nband=  8, wtk=  1.00000, kpt=  0.0000  0.5000  0.5000 (reduced coord)
  -1.96393   -1.96393    3.00569    3.00569    6.51173    6.51173   15.95524   15.95524
 kpt# 104, nband=  8, wtk=  1.00000, kpt=  0.5000  0.7500  0.7500 (reduced coord)
  -4.09077    0.39030    2.06892    4.56152    8.29805   10.69473   11.02843   11.97282
 kpt# 105, nband=  8, wtk=  1.00000, kpt=  1.0000  1.0000  1.0000 (reduced coord)
  -6.17005    5.91814    5.91814    5.91814    8.44836    8.44836    8.44836    9.17755

== END DATASET(S) ==============================================================
================================================================================
  
 -outvars: echo values of variables after computation  --------
            acell      1.0216000000E+01  1.0216000000E+01  1.0216000000E+01 Bohr
              amu      2.80855000E+01
           diemac      1.20000000E+01
             ecut      8.00000000E+00 Hartree
           enunit1          0
           enunit2          1
           etotal1    -8.8725594041E+00
            fcart1    -0.0000000000E+00 -0.0000000000E+00 -0.0000000000E+00
                      -0.0000000000E+00 -0.0000000000E+00 -0.0000000000E+00
-          fftalg         112
           getden1          0
           getden2         -1
             iscf1          7
             iscf2         -2
           istwfk2       3    0    2    0    0    0    0    0    0    0
                         0    0    0    0    0    0    0    0    0    0
                         0    0    0    0    0    0    0    0    0    0
                         0    0    0    0    0    0    0    0    0    0
                         0    0    0    0    0    0    0    0    0    0
                       outvar_i_n : Printing only first  50 k-points.
           jdtset        1    2
              kpt1    -1.25000000E-01 -2.50000000E-01  0.00000000E+00
                      -1.25000000E-01  5.00000000E-01  0.00000000E+00
                      -2.50000000E-01 -3.75000000E-01  0.00000000E+00
                      -1.25000000E-01 -3.75000000E-01  1.25000000E-01
                      -1.25000000E-01  2.50000000E-01  0.00000000E+00
                      -2.50000000E-01  3.75000000E-01  0.00000000E+00
                      -3.75000000E-01  5.00000000E-01  0.00000000E+00
                      -2.50000000E-01  5.00000000E-01  1.25000000E-01
                      -1.25000000E-01  0.00000000E+00  0.00000000E+00
                      -3.75000000E-01  0.00000000E+00  0.00000000E+00
              kpt2     5.00000000E-01  0.00000000E+00  0.00000000E+00
                       2.50000000E-01  0.00000000E+00  0.00000000E+00
                       0.00000000E+00  0.00000000E+00  0.00000000E+00
                       0.00000000E+00  5.00000000E-03  5.00000000E-03
                       0.00000000E+00  1.00000000E-02  1.00000000E-02
                       0.00000000E+00  1.50000000E-02  1.50000000E-02
                       0.00000000E+00  2.00000000E-02  2.00000000E-02
                       0.00000000E+00  2.50000000E-02  2.50000000E-02
                       0.00000000E+00  3.00000000E-02  3.00000000E-02
                       0.00000000E+00  3.50000000E-02  3.50000000E-02
                       0.00000000E+00  4.00000000E-02  4.00000000E-02
                       0.00000000E+00  4.50000000E-02  4.50000000E-02
                       0.00000000E+00  5.00000000E-02  5.00000000E-02
                       0.00000000E+00  5.50000000E-02  5.50000000E-02
                       0.00000000E+00  6.00000000E-02  6.00000000E-02
                       0.00000000E+00  6.50000000E-02  6.50000000E-02
                       0.00000000E+00  7.00000000E-02  7.00000000E-02
                       0.00000000E+00  7.50000000E-02  7.50000000E-02
                       0.00000000E+00  8.00000000E-02  8.00000000E-02
                       0.00000000E+00  8.50000000E-02  8.50000000E-02
                       0.00000000E+00  9.00000000E-02  9.00000000E-02
                       0.00000000E+00  9.50000000E-02  9.50000000E-02
                       0.00000000E+00  1.00000000E-01  1.00000000E-01
                       0.00000000E+00  1.05000000E-01  1.05000000E-01
                       0.00000000E+00  1.10000000E-01  1.10000000E-01
                       0.00000000E+00  1.15000000E-01  1.15000000E-01
                       0.00000000E+00  1.20000000E-01  1.20000000E-01
                       0.00000000E+00  1.25000000E-01  1.25000000E-01
                       0.00000000E+00  1.30000000E-01  1.30000000E-01
                       0.00000000E+00  1.35000000E-01  1.35000000E-01
                       0.00000000E+00  1.40000000E-01  1.40000000E-01
                       0.00000000E+00  1.45000000E-01  1.45000000E-01
                       0.00000000E+00  1.50000000E-01  1.50000000E-01
                       0.00000000E+00  1.55000000E-01  1.55000000E-01
                       0.00000000E+00  1.60000000E-01  1.60000000E-01
                       0.00000000E+00  1.65000000E-01  1.65000000E-01
                       0.00000000E+00  1.70000000E-01  1.70000000E-01
                       0.00000000E+00  1.75000000E-01  1.75000000E-01
                       0.00000000E+00  1.80000000E-01  1.80000000E-01
                       0.00000000E+00  1.85000000E-01  1.85000000E-01
                       0.00000000E+00  1.90000000E-01  1.90000000E-01
                       0.00000000E+00  1.95000000E-01  1.95000000E-01
                       0.00000000E+00  2.00000000E-01  2.00000000E-01
                       0.00000000E+00  2.05000000E-01  2.05000000E-01
                       0.00000000E+00  2.10000000E-01  2.10000000E-01
                       0.00000000E+00  2.15000000E-01  2.15000000E-01
                       0.00000000E+00  2.20000000E-01  2.20000000E-01
                       0.00000000E+00  2.25000000E-01  2.25000000E-01
                       0.00000000E+00  2.30000000E-01  2.30000000E-01
                       0.00000000E+00  2.35000000E-01  2.35000000E-01
                       outvar_i_n : Printing only first  50 k-points.
           kptopt1          1
           kptopt2         -3
         kptrlatt        4   -4    4     -4    4    4     -4   -4    4
          kptrlen1     4.08640000E+01
          kptrlen2     3.00000000E+01
P           mkmem1         10
P           mkmem2        105
            natom           2
            nband1          5
            nband2          8
           nbdbuf1          0
           nbdbuf2          2
           ndtset           2
            ngfft          20      20      20
             nkpt1         10
             nkpt2        105
            nstep          10
             nsym          48
           ntypat           1
              occ      2.000000  2.000000  2.000000  2.000000  0.000000
            rprim      0.0000000000E+00  5.0000000000E-01  5.0000000000E-01
                       5.0000000000E-01  0.0000000000E+00  5.0000000000E-01
                       5.0000000000E-01  5.0000000000E-01  0.0000000000E+00
           shiftk      5.00000000E-01  5.00000000E-01  5.00000000E-01
          spgroup         227
           strten1     2.9301643503E-05  2.9301643503E-05  2.9301643503E-05
                       0.0000000000E+00  0.0000000000E+00  0.0000000000E+00
           symrel      1  0  0   0  1  0   0  0  1      -1  0  0   0 -1  0   0  0 -1
                       0 -1  1   0 -1  0   1 -1  0       0  1 -1   0  1  0  -1  1  0
                      -1  0  0  -1  0  1  -1  1  0       1  0  0   1  0 -1   1 -1  0
                       0  1 -1   1  0 -1   0  0 -1       0 -1  1  -1  0  1   0  0  1
                      -1  0  0  -1  1  0  -1  0  1       1  0  0   1 -1  0   1  0 -1
                       0 -1  1   1 -1  0   0 -1  0       0  1 -1  -1  1  0   0  1  0
                       1  0  0   0  0  1   0  1  0      -1  0  0   0  0 -1   0 -1  0
                       0  1 -1   0  0 -1   1  0 -1       0 -1  1   0  0  1  -1  0  1
                      -1  0  1  -1  1  0  -1  0  0       1  0 -1   1 -1  0   1  0  0
                       0 -1  0   1 -1  0   0 -1  1       0  1  0  -1  1  0   0  1 -1
                       1  0 -1   0  0 -1   0  1 -1      -1  0  1   0  0  1   0 -1  1
                       0  1  0   0  0  1   1  0  0       0 -1  0   0  0 -1  -1  0  0
                       1  0 -1   0  1 -1   0  0 -1      -1  0  1   0 -1  1   0  0  1
                       0 -1  0   0 -1  1   1 -1  0       0  1  0   0  1 -1  -1  1  0
                      -1  0  1  -1  0  0  -1  1  0       1  0 -1   1  0  0   1 -1  0
                       0  1  0   1  0  0   0  0  1       0 -1  0  -1  0  0   0  0 -1
                       0  0 -1   0  1 -1   1  0 -1       0  0  1   0 -1  1  -1  0  1
                       1 -1  0   0 -1  1   0 -1  0      -1  1  0   0  1 -1   0  1  0
                       0  0  1   1  0  0   0  1  0       0  0 -1  -1  0  0   0 -1  0
                      -1  1  0  -1  0  0  -1  0  1       1 -1  0   1  0  0   1  0 -1
                       0  0  1   0  1  0   1  0  0       0  0 -1   0 -1  0  -1  0  0
                       1 -1  0   0 -1  0   0 -1  1      -1  1  0   0  1  0   0  1 -1
                       0  0 -1   1  0 -1   0  1 -1       0  0  1  -1  0  1   0 -1  1
                      -1  1  0  -1  0  1  -1  0  0       1 -1  0   1  0 -1   1  0  0
            tnons      0.0000000  0.0000000  0.0000000     0.2500000  0.2500000  0.2500000
                       0.0000000  0.0000000  0.0000000     0.2500000  0.2500000  0.2500000
                       0.0000000  0.0000000  0.0000000     0.2500000  0.2500000  0.2500000
                       0.0000000  0.0000000  0.0000000     0.2500000  0.2500000  0.2500000
                       0.0000000  0.0000000  0.0000000     0.2500000  0.2500000  0.2500000
                       0.0000000  0.0000000  0.0000000     0.2500000  0.2500000  0.2500000
                       0.0000000  0.0000000  0.0000000     0.2500000  0.2500000  0.2500000
                       0.0000000  0.0000000  0.0000000     0.2500000  0.2500000  0.2500000
                       0.0000000  0.0000000  0.0000000     0.2500000  0.2500000  0.2500000
                       0.0000000  0.0000000  0.0000000     0.2500000  0.2500000  0.2500000
                       0.0000000  0.0000000  0.0000000     0.2500000  0.2500000  0.2500000
                       0.0000000  0.0000000  0.0000000     0.2500000  0.2500000  0.2500000
                       0.0000000  0.0000000  0.0000000     0.2500000  0.2500000  0.2500000
                       0.0000000  0.0000000  0.0000000     0.2500000  0.2500000  0.2500000
                       0.0000000  0.0000000  0.0000000     0.2500000  0.2500000  0.2500000
                       0.0000000  0.0000000  0.0000000     0.2500000  0.2500000  0.2500000
                       0.0000000  0.0000000  0.0000000     0.2500000  0.2500000  0.2500000
                       0.0000000  0.0000000  0.0000000     0.2500000  0.2500000  0.2500000
                       0.0000000  0.0000000  0.0000000     0.2500000  0.2500000  0.2500000
                       0.0000000  0.0000000  0.0000000     0.2500000  0.2500000  0.2500000
                       0.0000000  0.0000000  0.0000000     0.2500000  0.2500000  0.2500000
                       0.0000000  0.0000000  0.0000000     0.2500000  0.2500000  0.2500000
                       0.0000000  0.0000000  0.0000000     0.2500000  0.2500000  0.2500000
                       0.0000000  0.0000000  0.0000000     0.2500000  0.2500000  0.2500000
           toldfe1     1.00000000E-06 Hartree
           toldfe2     0.00000000E+00 Hartree
           tolwfr1     0.00000000E+00
           tolwfr2     1.00000000E-12
            typat      1  1
              wtk1       0.09375    0.09375    0.09375    0.18750    0.09375    0.09375
                         0.09375    0.18750    0.03125    0.03125
              wtk2       1.00000    1.00000    1.00000    1.00000    1.00000    1.00000
                         1.00000    1.00000    1.00000    1.00000    1.00000    1.00000
                         1.00000    1.00000    1.00000    1.00000    1.00000    1.00000
                         1.00000    1.00000    1.00000    1.00000    1.00000    1.00000
                         1.00000    1.00000    1.00000    1.00000    1.00000    1.00000
                         1.00000    1.00000    1.00000    1.00000    1.00000    1.00000
                         1.00000    1.00000    1.00000    1.00000    1.00000    1.00000
                         1.00000    1.00000    1.00000    1.00000    1.00000    1.00000
                         1.00000    1.00000
                       outvars : Printing only first  50 k-points.
           xangst      0.0000000000E+00  0.0000000000E+00  0.0000000000E+00
                       1.3515185907E+00  1.3515185907E+00  1.3515185907E+00
            xcart      0.0000000000E+00  0.0000000000E+00  0.0000000000E+00
                       2.5540000000E+00  2.5540000000E+00  2.5540000000E+00
             xred      0.0000000000E+00  0.0000000000E+00  0.0000000000E+00
                       2.5000000000E-01  2.5000000000E-01  2.5000000000E-01
            znucl       14.00000

================================================================================

- Total cpu        time (s,m,h):         42.0        0.70      0.012
- Total wall clock time (s,m,h):         12.7        0.21      0.004
-
- For major independent code sections, cpu and wall times (sec),
-  as well as % of the time and number of calls for node 0-
-<BEGIN_TIMER mpi_nprocs = 1, omp_nthreads = 1, mpi_rank = 0>
- cpu_time =           42.0, wall_time =           12.7
-
- routine                        cpu     %       wall     %      number of calls  Gflops    Speedup Efficacity
-                                                                  (-1=no count)
- fourwf%(pot)                  23.996  57.1      6.626  52.2          21050      -1.00        3.62       3.62
- projbd                         3.920   9.3      1.027   8.1          32488      -1.00        3.82       3.82
- vtowfk(ssdiag)                 3.760   8.9      1.227   9.7             -1      -1.00        3.06       3.06
- nonlop(apply)                  3.132   7.5      0.862   6.8          21050      -1.00        3.63       3.63
- getghc-other                   1.716   4.1      0.511   4.0             -1      -1.00        3.36       3.36
- pspini                         0.632   1.5      0.749   5.9              2      -1.00        0.84       0.84
- newkpt(excl. rwwf   )          0.216   0.5      0.070   0.6             -1      -1.00        3.09       3.09
- others (106)                   0.912   2.2      0.492   3.9             -1      -1.00        1.85       1.85
-<END_TIMER>
-
- subtotal                      38.284  91.1     11.564  91.0                                  3.31       3.31

- For major independent code sections, cpu and wall times (sec),
- as well as % of the total time and number of calls 

-<BEGIN_TIMER mpi_nprocs = 1, omp_nthreads = 1, mpi_rank = world>
- cpu_time =          42.0, wall_time =          12.7
-
- routine                         cpu     %       wall     %      number of calls Gflops    Speedup Efficacity
-                                                                  (-1=no count)
- fourwf%(pot)                  23.996  57.1      6.626  52.2          21050      -1.00        3.62       3.62
- projbd                         3.920   9.3      1.027   8.1          32488      -1.00        3.82       3.82
- vtowfk(ssdiag)                 3.760   8.9      1.227   9.7             -1      -1.00        3.06       3.06
- nonlop(apply)                  3.132   7.5      0.862   6.8          21050      -1.00        3.63       3.63
- getghc-other                   1.716   4.1      0.511   4.0             -1      -1.00        3.36       3.36
- pspini                         0.632   1.5      0.749   5.9              2      -1.00        0.84       0.84
- newkpt(excl. rwwf   )          0.216   0.5      0.070   0.6             -1      -1.00        3.09       3.09
- others (106)                   0.912   2.2      0.492   3.9             -1      -1.00        1.85       1.85
-<END_TIMER>

- subtotal                      38.284  91.1     11.564  91.0                                  3.31       3.31

================================================================================

 Suggested references for the acknowledgment of ABINIT usage.

 The users of ABINIT have little formal obligations with respect to the ABINIT group
 (those specified in the GNU General Public License, http://www.gnu.org/copyleft/gpl.txt).
 However, it is common practice in the scientific literature,
 to acknowledge the efforts of people that have made the research possible.
 In this spirit, please find below suggested citations of work written by ABINIT developers,
 corresponding to implementations inside of ABINIT that you have used in the present run.
 Note also that it will be of great value to readers of publications presenting these results,
 to read papers enabling them to understand the theoretical formalism and details
 of the ABINIT implementation.
 For information on why they are suggested, see also http://www.abinit.org/about/?text=acknowledgments.
-
- [1] Recent developments in the ABINIT software package.
- Computer Phys. Comm. 205, 106 (2016).
- X.Gonze, F.Jollet, F.Abreu Araujo, D.Adams, B.Amadon, T.Applencourt,
- C.Audouze, J.-M.Beuken, J.Bieder, A.Bokhanchuk, E.Bousquet, F.Bruneval
- D.Caliste, M.Cote, F.Dahm, F.Da Pieve, M.Delaveau, M.Di Gennaro,
- B.Dorado, C.Espejo, G.Geneste, L.Genovese, A.Gerossier, M.Giantomassi,
- Y.Gillet, D.R.Hamann, L.He, G.Jomard, J.Laflamme Janssen, S.Le Roux,
- A.Levitt, A.Lherbier, F.Liu, I.Lukacevic, A.Martin, C.Martins,
- M.J.T.Oliveira, S.Ponce, Y.Pouillon, T.Rangel, G.-M.Rignanese,
- A.H.Romero, B.Rousseau, O.Rubel, A.A.Shukri, M.Stankovski, M.Torrent,
- M.J.Van Setten, B.Van Troeye, M.J.Verstraete, D.Waroquier, J.Wiktor,
- B.Xue, A.Zhou, J.W.Zwanziger.
- Comment : the fourth generic paper describing the ABINIT project.
- Note that a version of this paper, that is not formatted for Computer Phys. Comm. 
- is available at http://www.abinit.org/about/ABINIT16.pdf .
- The licence allows the authors to put it on the Web.
-
- [2] ABINIT : First-principles approach of materials and nanosystem properties.
- Computer Phys. Comm. 180, 2582-2615 (2009).
- X. Gonze, B. Amadon, P.-M. Anglade, J.-M. Beuken, F. Bottin, P. Boulanger, F. Bruneval,
- D. Caliste, R. Caracas, M. Cote, T. Deutsch, L. Genovese, Ph. Ghosez, M. Giantomassi
- S. Goedecker, D.R. Hamann, P. Hermet, F. Jollet, G. Jomard, S. Leroux, M. Mancini, S. Mazevet,
- M.J.T. Oliveira, G. Onida, Y. Pouillon, T. Rangel, G.-M. Rignanese, D. Sangalli, R. Shaltaf,
- M. Torrent, M.J. Verstraete, G. Zerah, J.W. Zwanziger
- Comment : the third generic paper describing the ABINIT project.
- Note that a version of this paper, that is not formatted for Computer Phys. Comm. 
- is available at http://www.abinit.org/about/ABINIT_CPC_v10.pdf .
- The licence allows the authors to put it on the Web.
-
- [3] A brief introduction to the ABINIT software package.
- Z. Kristallogr. 220, 558-562 (2005).
- X. Gonze, G.-M. Rignanese, M. Verstraete, J.-M. Beuken, Y. Pouillon, R. Caracas, F. Jollet,
- M. Torrent, G. Zerah, M. Mikami, Ph. Ghosez, M. Veithen, J.-Y. Raty, V. Olevano, F. Bruneval,
- L. Reining, R. Godby, G. Onida, D.R. Hamann, and D.C. Allan.
- Comment : the second generic paper describing the ABINIT project. Note that this paper
- should be cited especially if you are using the GW part of ABINIT, as several authors
- of this part are not in the list of authors of the first or third paper.
- The .pdf of the latter paper is available at http://www.abinit.org/about/zfk_0505-06_558-562.pdf.
- Note that it should not redistributed (Copyright by Oldenburg Wissenshaftverlag,
- the licence allows the authors to put it on the Web).
-
- And optionally:
-
- [4] First-principles computation of material properties : the ABINIT software project. 
- X. Gonze, J.-M. Beuken, R. Caracas, F. Detraux, M. Fuchs, G.-M. Rignanese, L. Sindic,
- M. Verstraete, G. Zerah, F. Jollet, M. Torrent, A. Roy, M. Mikami, Ph. Ghosez, J.-Y. Raty, D.C. Allan.
- Computational Materials Science 25, 478-492 (2002). http://dx.doi.org/10.1016/S0927-0256(02)00325-7
- Comment : the original paper describing the ABINIT project.
-
- Proc.   0 individual time (sec): cpu=         42.0  wall=         12.7

================================================================================

 Calculation completed.
.Delivered   2 WARNINGs and   2 COMMENTs to log file.
+Overall time at end (sec) : cpu=         42.0  wall=         12.7
